LAMMPS (10 Sep 2025 - Development - patch_10Sep2025-660-g792d014343)
OMP_NUM_THREADS environment is not set. Defaulting to 1 thread.
  using 1 OpenMP thread(s) per MPI task
# Defining essential variables

units lj
atom_style  hybrid sphere molecular
WARNING: Atom style hybrid defines both, per-type and per-atom masses; both must be set, but only per-atom masses will be used (src/atom_vec_hybrid.cpp:132)
boundary p p p
pair_style hybrid lj/cut 2.0 cosine/squared 0.12




# Creating simulation box

region box block 0 30.0 0 30.0 0 30.0
create_box 2 box
Created orthogonal box = (0 0 0) to (30 30 30)
  1 by 1 by 1 MPI processor grid




# Loading and creating molecule from the given template

molecule patchy_part patchy_molecule.mol
Read molecule template patchy_part:
(no title)
  1 molecules
  0 fragments
  0 bodies
  3 atoms with max type 2
  0 bonds with max type 0
  0 angles with max type 0
  0 dihedrals with max type 0
  0 impropers with max type 0
create_atoms 0 random 1000 87910 NULL mol patchy_part 454756 overlap 1.5 maxtry 50
Created 3000 atoms
  using lattice units in orthogonal box = (0 0 0) to (30 30 30)
  create_atoms CPU = 0.502 seconds



pair_modify shift yes
WARNING: pair_modify shift has no effect on pair_style cosine/squared (src/EXTRA-PAIR/pair_cosine_squared.cpp:219)
# Defining particle properties and interaction parameters among the particles

pair_coeff 1 1 lj/cut 1.0 1.0 1.1224
pair_coeff 1 2 none
pair_coeff 2 2 cosine/squared 8 0.3 0.35        # Gaussian potential for peripheral atoms

set type 1 mass 1.0
Setting atom values ...
  1000 settings made for mass
set type 2 mass 0.000001
Setting atom values ...
  2000 settings made for mass

set type 1 diameter 1.0
Setting atom values ...
  1000 settings made for diameter
set type 2 diameter 0.0
Setting atom values ...
  2000 settings made for diameter




# Grouping the particles in different set to apply different fixes

group core type 1
1000 atoms in group core
group patch type 2
2000 atoms in group patch
group rigid_molecule type 1 2
3000 atoms in group rigid_molecule




# Speeding up simulation by excluding the unnecessary calculation of particles within the molecule

neigh_modify exclude molecule/intra rigid_molecule every 1 delay 0 check no




# Setting up thermostat on the brownian particles while the patches are being treated just an interaction cites

fix thermo_stat  core langevin 5 5 0.1 428984  omega yes




# Exporting the simulation data

dump 1 all custom 10000 simulation_data.lammpstrj id type x y z mol
fix rigid_thermo rigid_molecule rigid/small molecule
Fix rigid/small setup ...
  create bodies CPU = 0.001 seconds
  1000 rigid bodies with 3000 atoms
  0.5 = max distance from body owner to body atom




# Computing temperature and kinetic energy just on the central core particles

compute kinetic_core core ke
fix kinetic_output core ave/time 100 1 100 c_kinetic_core file kinetic.dat mode scalar

compute temp_core core temp/sphere
fix temp_output core ave/time 100 1 100 c_temp_core file temperature.dat mode scalar




# Defining the time step achieved in lj unit with each simulation step

timestep 0.005                               # Set timestep




# Specifying the parameters to be printed on the terminal

thermo 100
thermo_style custom step temp ke pe press c_kinetic_core c_temp_core




# Running the simulation

run 1000000
Generated 0 of 1 mixed pair_coeff terms from geometric mixing rule
Neighbor list info ...
  update: every = 1 steps, delay = 0 steps, check = no
  max neighbors/atom: 2000, page size: 100000
  master list distance cutoff = 1.4224
  ghost atom cutoff = 1.4224
  binsize = 0.7112, bins = 43 43 43
  3 neighbor lists, perpetual/occasional/extra = 3 0 0
  (1) pair lj/cut, perpetual, skip from (3)
      attributes: half, newton on
      pair build: skip
      stencil: none
      bin: none
  (2) pair cosine/squared, perpetual, skip from (3)
      attributes: half, newton on
      pair build: skip
      stencil: none
      bin: none
  (3) neighbor class addition, perpetual
      attributes: half, newton on
      pair build: half/bin/newton
      stencil: half/bin/3d
      bin: standard
WARNING: Computing temperature of portions of rigid bodies (src/RIGID/fix_rigid_small.cpp:1110)
Per MPI rank memory allocation (min/avg/max) = 13.68 | 13.68 | 13.68 Mbytes
   Step          Temp          KinEng         PotEng         Press      c_kinetic_core  c_temp_core  
         0   0              0              0              0.42101807     0              0            
       100   4.8833174      2.439217       0.0099443834   0.1892312      2.4392037      4.9910711    
       200   5.1129467      2.5539169     -0.0062240202   0.19449469     2.5539029      5.1657271    
       300   5.2653428      2.6300387      0.015103894    0.21310663     2.6300255      5.0888223    
       400   5.0753684      2.5351465      0.0064816117   0.20406455     2.5351334      4.96315      
       500   5.0644865      2.529711      -0.0094326908   0.20166542     2.5296977      5.0133492    
       600   4.731542       2.3634052     -0.00048253427  0.18265994     2.3633924      4.8736208    
       700   4.9631254      2.4790811      0.00055725143  0.19871747     2.4790679      5.0076186    
       800   5.0270475      2.5110102     -0.012974954    0.18927462     2.5109974      4.9222825    
       900   4.8207105      2.4079449     -0.004629624    0.18898823     2.4079318      4.9367166    
      1000   4.925245       2.4601599     -0.016393589    0.19173459     2.4601469      4.8538393    
      1100   4.8846556      2.4398855     -0.0034520468   0.19226114     2.4398721      4.932364     
      1200   4.9868586      2.4909359     -0.018438262    0.19233055     2.4909227      4.9560923    
      1300   4.7948122      2.3950087     -0.0045724271   0.18805316     2.3949958      4.9190413    
      1400   5.1109809      2.552935       0.012613218    0.20251225     2.5529213      5.1071192    
      1500   5.1986147      2.596708       0.0017980223   0.20167405     2.596695       4.9522603    
      1600   5.0377176      2.5163399     -0.0040927188   0.19152634     2.5163267      4.9954434    
      1700   4.8542236      2.4246847     -0.0087747036   0.19367823     2.4246713      4.9273395    
      1800   4.8520474      2.4235977     -0.0036663397   0.18677325     2.4235847      4.9639788    
      1900   5.0424794      2.5187184      0.0023906405   0.19814397     2.5187049      5.0754761    
      2000   5.1090106      2.5519508      0.0073320005   0.20226099     2.5519374      5.0122538    
      2100   5.1934286      2.5941176     -0.0060341972   0.19428839     2.5941036      5.1384268    
      2200   5.1031851      2.549041       0.0081921184   0.19931526     2.5490274      5.1193628    
      2300   5.143191       2.5690239      0.0082745855   0.21060343     2.5690096      5.2258854    
      2400   5.1024016      2.5486496      0.004024663    0.20072403     2.5486361      5.097326     
      2500   4.9321542      2.463611       0.0025358195   0.19352628     2.4635974      5.0486961    
      2600   4.8907358      2.4429225     -0.011440538    0.19119504     2.4429094      4.9585828    
      2700   5.0047365      2.4998659     -0.0031485857   0.19482883     2.4998525      5.010941     
      2800   5.0893194      2.542115      -0.0070625089   0.19526357     2.5421016      5.0165994    
      2900   5.0449985      2.5199768      0.0019077777   0.19816135     2.5199636      4.9611629    
      3000   5.0181397      2.5065608     -0.0017412752   0.20432112     2.5065472      5.0822058    
      3100   4.9800529      2.4875364     -0.0092929206   0.19064808     2.487523       5.0048655    
      3200   4.9867873      2.4909003      0.0015891006   0.20579941     2.4908869      4.9864076    
      3300   5.1030099      2.5489534     -0.0048984915   0.1968406      2.5489404      4.9017742    
      3400   4.8674573      2.4312949     -0.0036386435   0.19267632     2.4312821      4.8583883    
      3500   5.2613903      2.6280644      0.0012162948   0.21337968     2.6280509      5.092438     
      3600   4.7212915      2.3582851     -0.0046229324   0.18943933     2.3582717      4.9147553    
      3700   4.8826266      2.438872      -0.012018383    0.19533365     2.4388589      4.9032226    
      3800   5.1184227      2.5566521     -0.015321474    0.19580328     2.5566391      5.0025364    
      3900   4.9701007      2.4825653     -0.008699363    0.18859572     2.4825519      4.9633682    
      4000   4.9042075      2.4496516      0.010385527    0.19940457     2.4496386      4.9746671    
      4100   4.8711313      2.4331301     -0.0040302965   0.19262259     2.4331168      4.9462697    
      4200   5.0913294      2.5431191     -0.01357624     0.19740586     2.5431055      5.1586284    
      4300   4.9267585      2.4609159     -0.018651032    0.19322041     2.4609024      4.9608205    
      4400   4.8329786      2.4140728      0.0062521247   0.19113594     2.4140596      4.8694045    
      4500   4.9440709      2.4695634      0.014770528    0.1972651      2.46955        4.9837236    
      4600   4.9533605      2.4742036      9.2756995e-05  0.19453616     2.4741903      4.9847727    
      4700   4.9490426      2.4720468     -0.011392626    0.19420519     2.4720329      5.0793299    
      4800   5.0096001      2.5022953      0.0019224041   0.19672085     2.5022819      5.004321     
      4900   4.9557059      2.4753751      0.01492489     0.20301067     2.4753617      4.9059961    
      5000   4.8164444      2.405814      -0.0036418872   0.18083341     2.4058007      4.9321707    
      5100   5.0757689      2.5353466      0.0035284744   0.20555405     2.5353328      5.0885428    
      5200   5.2097568      2.6022735     -0.0099031342   0.20261789     2.6022599      5.0622253    
      5300   5.0280778      2.5115249     -0.0047267088   0.19538968     2.5115115      5.0198288    
      5400   5.0390073      2.5169841      5.4050499e-05  0.19119242     2.5169709      4.9649597    
      5500   4.9845349      2.4897752     -0.0013314285   0.19928695     2.4897619      4.9869297    
      5600   5.0396102      2.5172853      0.0060875271   0.20069931     2.5172721      4.983052     
      5700   5.0954369      2.5451707     -0.0029845433   0.19391196     2.5451575      5.0501875    
      5800   4.9028292      2.4489632      0.0023195795   0.20272092     2.4489496      5.0038292    
      5900   5.0781066      2.5365142      0.0097718227   0.19958347     2.536501       5.0637726    
      6000   4.83598        2.415572      -0.0026452494   0.18142829     2.415559       4.8469189    
      6100   4.8227251      2.4089512     -0.0070077925   0.18691832     2.4089381      4.8964432    
      6200   4.9538439      2.474445      -0.0061964445   0.19212266     2.4744316      4.9887661    
      6300   4.9752907      2.4851577      0.0046539471   0.19371677     2.4851444      4.9506683    
      6400   5.0608402      2.5278897     -0.00075664561  0.19906006     2.5278761      5.0721083    
      6500   5.146543       2.5706982     -0.0043569551   0.19830144     2.5706851      5.036356     
      6600   5.0892025      2.5420566     -0.01214803     0.20170794     2.5420431      5.0447236    
      6700   4.9099964      2.4525432     -0.022316082    0.19071824     2.4525302      4.9353712    
      6800   4.9650816      2.4800583     -0.012387931    0.18735638     2.4800446      5.10623      
      6900   4.8817008      2.4384096     -0.0049766506   0.18868164     2.4383966      4.8760501    
      7000   5.029922       2.512446       0.0032911388   0.1918191      2.5124324      5.080183     
      7100   4.9204549      2.4577672      0.009790214    0.19682904     2.457754       4.9140261    
      7200   4.8895287      2.4423196     -0.0079946348   0.18834012     2.4423064      4.959194     
      7300   5.1505715      2.5727104      0.0055540975   0.19987444     2.5726973      4.9818823    
      7400   5.2826108      2.6386641     -0.0071356303   0.20402866     2.6386506      5.1218097    
      7500   5.1318585      2.5633633     -0.012477796    0.20451363     2.56335        5.0253544    
      7600   4.9717492      2.4833887     -0.0040542286   0.19872228     2.4833755      4.9771219    
      7700   5.0688908      2.531911      -0.0036373287   0.19605586     2.5318979      4.994632     
      7800   4.9226864      2.4588819      0.0080602161   0.19398134     2.4588688      4.8939398    
      7900   5.1211996      2.5580392     -9.5721574e-05  0.19892341     2.5580257      5.053505     
      8000   4.9371709      2.4661169     -0.011214711    0.19263766     2.4661036      5.0001234    
      8100   5.2666066      2.63067       -0.0089443173   0.2019529      2.6306563      5.1628518    
      8200   4.8567383      2.4259408     -0.0091463913   0.1835206      2.425928       4.8892464    
      8300   5.1721088      2.5834683     -0.0017606497   0.20344001     2.5834551      4.9976233    
      8400   5.2140141      2.6044001     -0.011918895    0.20462339     2.6043866      5.0416432    
      8500   5.0606982      2.5278187     -0.0046537261   0.19705416     2.5278051      5.0621122    
      8600   4.8983562      2.4467289      0.012915723    0.19492884     2.4467157      4.9407696    
      8700   5.0696562      2.5322933      0.0061607744   0.20530651     2.5322801      4.9850031    
      8800   5.0924729      2.5436902      0.0096738351   0.20729261     2.5436765      5.0991799    
      8900   5.0238088      2.5093925      0.0085511174   0.20439587     2.5093795      4.9231172    
      9000   4.9498202      2.4724352     -0.0029550155   0.19500978     2.4724219      5.0182017    
      9100   5.2699867      2.6323584     -0.0042866026   0.20258188     2.6323449      5.1319474    
      9200   4.8419259      2.418542      -0.0074215475   0.19253208     2.4185288      4.940575     
      9300   5.0656486      2.5302915      0.00033579308  0.19762923     2.5302779      5.0209018    
      9400   5.0379085      2.5164353      0.010236632    0.20911359     2.5164219      5.0239914    
      9500   4.926998       2.4610355     -0.0003169432   0.19137921     2.4610222      4.9145535    
      9600   4.9123845      2.4537361     -0.0078490179   0.18838804     2.453723       4.9465337    
      9700   5.2656734      2.6302038      0.0043263919   0.20763056     2.6301904      5.0780481    
      9800   4.9180724      2.4565772     -0.0013789873   0.19255418     2.4565641      4.897294     
      9900   5.0285638      2.5117676      0.015107383    0.20396161     2.5117539      5.1237816    
     10000   4.9634662      2.4792514     -0.0053571562   0.19724308     2.4792378      4.99128      
     10100   5.1561907      2.5755172     -0.0018018009   0.20657223     2.5755036      5.1035275    
     10200   4.7777746      2.3864984      0.0083306907   0.19139223     2.3864857      4.8205781    
     10300   4.8417612      2.4184597     -0.0070284993   0.18701406     2.4184466      4.8704754    
     10400   5.0475575      2.521255       0.014634362    0.20697237     2.5212413      5.0623785    
     10500   4.9742141      2.4846199     -0.0031303168   0.19234924     2.4846062      5.0401723    
     10600   4.7536283      2.3744374     -0.011804539    0.18477398     2.3744241      4.9335683    
     10700   4.919846       2.4574631     -0.016289603    0.18879665     2.4574502      4.8278245    
     10800   4.8826619      2.4388896     -0.010838747    0.19233609     2.4388762      4.9762455    
     10900   5.0037251      2.4993607      0.0084256805   0.19805919     2.4993476      4.9693861    
     11000   4.9461384      2.4705961     -0.0088691929   0.18786486     2.4705831      4.9170916    
     11100   5.0249915      2.5099833      0.0058516741   0.19969238     2.50997        4.9894534    
     11200   4.8425602      2.4188588     -0.013498135    0.18740982     2.4188458      4.8189378    
     11300   4.853153       2.4241499      0.0010649898   0.19637709     2.4241371      4.8559369    
     11400   5.0320912      2.5135296      0.0032981062   0.19270311     2.513516       5.0629892    
     11500   5.1985905      2.596696      -0.0040204124   0.20426429     2.5966825      5.1157457    
     11600   4.9428247      2.468941       0.0063372811   0.19529554     2.4689278      4.9615295    
     11700   4.9065142      2.4508038      0.0023999306   0.19250491     2.4507908      4.8322157    
     11800   4.8448193      2.4199872      0.0066455836   0.19305169     2.419974       4.9709351    
     11900   5.0775073      2.5362149      0.0049888864   0.2013769      2.5362016      5.0001173    
     12000   5.1468435      2.5708483      0.012582114    0.20580849     2.5708349      5.048735     
     12100   4.8115452      2.4033668     -0.0098720476   0.18342566     2.4033538      4.8835041    
     12200   4.7239757      2.3596259     -0.0010049069   0.1887626      2.3596126      4.9310624    
     12300   5.0193004      2.5071405     -0.0059993437   0.19669564     2.5071271      5.0572891    
     12400   5.1662829      2.5805583      0.013391324    0.21044986     2.5805445      5.1252625    
     12500   4.8209492      2.4080641      0.0047141559   0.18756973     2.408051       4.9253421    
     12600   4.7730121      2.3841195     -0.00017329064  0.18606773     2.3841066      4.8919935    
     12700   5.0835486      2.5392325     -0.0058171581   0.19873186     2.5392195      4.9413834    
     12800   5.0970829      2.5459929      0.0048173705   0.20177208     2.5459796      4.9408634    
     12900   4.9570615      2.4760522     -0.015639486    0.19491243     2.4760392      4.9394871    
     13000   5.0601407      2.5275403     -0.011056568    0.19882751     2.527527       5.0043335    
     13100   5.0569577      2.5259504      0.00064313762  0.21150381     2.5259367      5.1525454    
     13200   5.0538301      2.5243881     -0.0055909958   0.19194761     2.5243746      5.0433681    
     13300   5.0063849      2.5006893     -0.012020713    0.19237207     2.500676       5.0001414    
     13400   4.8005965      2.397898      -0.0014326878   0.19092695     2.3978848      4.8416285    
     13500   4.7515023      2.3733754     -0.009590632    0.18557312     2.3733623      4.9068977    
     13600   4.9924035      2.4937056      0.010498078    0.20019426     2.4936921      5.0479104    
     13700   4.890072       2.442591      -0.0061015915   0.19528246     2.4425776      4.9734046    
     13800   5.0605223      2.5277309     -0.0036658977   0.19134544     2.527717       5.1326153    
     13900   5.0406869      2.5178231     -0.016111801    0.19233404     2.5178099      4.9635202    
     14000   4.7995867      2.3973936     -0.0049336633   0.18373023     2.3973802      4.9449864    
     14100   5.1060463      2.5504701      0.00025989981  0.20100312     2.550457       4.937651     
     14200   5.1700293      2.5824297     -0.016200085    0.20309124     2.5824163      5.0627368    
     14300   5.0489122      2.5219316      0.0077624882   0.19979756     2.521918       4.9681781    
     14400   4.9957258      2.4953651      0.0020915515   0.19745456     2.495352       4.9663597    
     14500   5.0028288      2.498913       0.018327065    0.20177177     2.4988998      5.0264555    
     14600   4.9088107      2.451951       0.00035067578  0.19092965     2.4519375      5.0207961    
     14700   5.0951569      2.5450309     -0.008024648    0.19639455     2.5450174      5.1231604    
     14800   4.8960801      2.445592       0.0024507954   0.19319712     2.4455788      4.9749127    
     14900   5.0025403      2.4987689      0.0072312012   0.20523988     2.4987554      5.1150572    
     15000   4.9740913      2.4845586      0.0047102809   0.19514336     2.4845451      5.0105038    
     15100   5.1018916      2.5483948      1.989355e-05   0.19883229     2.5483816      4.9539083    
     15200   5.054616       2.5247807     -0.0030675439   0.19451788     2.5247677      4.8763627    
     15300   4.9363031      2.4656834      0.0018603268   0.19736243     2.4656707      4.8698116    
     15400   4.9916179      2.4933132      0.0083458435   0.20564741     2.4933001      4.9295211    
     15500   5.03504        2.5150025      0.0029068753   0.19679885     2.5149894      4.9783614    
     15600   4.9589853      2.4770131      0.0081206451   0.19899398     2.477          4.8664088    
     15700   5.1033013      2.549099      -0.0081985988   0.19425036     2.5490861      4.9683411    
     15800   4.8724118      2.4337697      0.010483826    0.19427908     2.433756       5.0191386    
     15900   5.2042942      2.5995449      0.00099123719  0.20895081     2.5995314      5.0472909    
     16000   4.9293394      2.462205      -0.0068847166   0.19525288     2.4621922      4.8744183    
     16100   4.9368893      2.4659762      0.0039851843   0.19449659     2.4659628      4.9752144    
     16200   5.2236698      2.6092231      0.0036445206   0.20777375     2.6092098      5.0583387    
     16300   5.0447045      2.5198299      0.0019024775   0.1957689      2.5198168      4.9948065    
     16400   5.1917206      2.5932644      0.0059814854   0.19722735     2.5932507      5.1801971    
     16500   5.041642       2.5183002      0.00019163739  0.1978515      2.5182865      5.0329305    
     16600   4.9953788      2.4951917     -0.0024583183   0.19663351     2.495178       5.0659953    
     16700   4.9510417      2.4730453     -0.0031937725   0.18567898     2.4730323      4.9282274    
     16800   5.1266074      2.5607404     -0.001327357    0.20395702     2.5607272      5.0449337    
     16900   4.8767901      2.4359567     -0.009368676    0.18509732     2.4359434      4.913511     
     17000   4.9693918      2.4822112     -0.0060828087   0.19370925     2.482198       4.9824962    
     17100   5.1449173      2.5698862      0.0047791503   0.20058575     2.5698727      5.0959274    
     17200   4.9303409      2.4627053      0.0099758841   0.19759979     2.4626919      5.0387905    
     17300   5.1146364      2.5547609      0.00035386854  0.19793409     2.5547469      5.1122868    
     17400   4.9189383      2.4570097     -0.010888843    0.18855439     2.4569961      5.0430554    
     17500   5.0858046      2.5403594     -0.006999281    0.19003506     2.5403458      5.1164696    
     17600   4.8053144      2.4002545      0.0068590426   0.19456605     2.4002413      4.8655428    
     17700   4.9351582      2.4651115     -0.0018208721   0.18851262     2.4650988      4.8692511    
     17800   4.9461022      2.4705781     -0.01740569     0.19203417     2.4705651      4.8644743    
     17900   5.0847726      2.5398439      0.0044440908   0.20308541     2.5398303      5.0958402    
     18000   4.9664775      2.4807555     -0.00082167085  0.19563355     2.4807423      4.9991641    
     18100   4.9515604      2.4733044      0.013838165    0.19909379     2.4732914      4.9007781    
     18200   4.9128423      2.4539648     -0.0066913964   0.19200717     2.4539517      4.9505428    
     18300   5.1846321      2.5897238      8.6943631e-06  0.20082874     2.5897103      5.1026634    
     18400   4.8595881      2.4273643     -0.00019994094  0.19152541     2.4273507      5.0097857    
     18500   4.9120445      2.4535662     -0.0082142135   0.19398996     2.4535531      4.8340115    
     18600   5.1223051      2.5585914     -0.0062622054   0.20005672     2.5585781      5.0274129    
     18700   4.9784032      2.4867124      0.0035213903   0.19817668     2.4866992      5.0156312    
     18800   4.9422329      2.4686454     -0.004631283    0.1940243      2.4686321      4.9023869    
     18900   5.170976       2.5829025      0.0012714017   0.20223402     2.5828887      5.1546925    
     19000   4.8738105      2.4344683     -0.0027629735   0.19793423     2.4344549      4.947309     
     19100   5.1051499      2.5500224      0.0046216448   0.20099634     2.5500087      5.0938594    
     19200   5.1094211      2.5521558     -0.0090817212   0.19947122     2.5521428      4.9546418    
     19300   5.1557711      2.5753077      0.010204246    0.20557105     2.5752943      4.9721892    
     19400   5.1100478      2.5524689     -0.012868805    0.19419706     2.5524552      5.1296919    
     19500   4.9039635      2.4495298      0.014131554    0.19734938     2.4495165      4.9243193    
     19600   4.826098       2.4106359     -0.0015002017   0.18416548     2.4106228      4.8966579    
     19700   4.8794547      2.4372876     -0.011586797    0.18786849     2.4372743      4.998998     
     19800   5.1124695      2.5536785      0.0089987882   0.20606441     2.5536647      5.1242556    
     19900   4.8079642      2.4015781      0.0046729959   0.18951415     2.4015653      4.7894227    
     20000   4.9328849      2.463976      -0.0022889832   0.1850845      2.4639625      4.9728785    
     20100   4.9637904      2.4794133     -0.0038747954   0.18850734     2.4794001      4.9791148    
     20200   5.0453108      2.5201327      0.0050395687   0.19897215     2.5201193      5.0731729    
     20300   4.7021875      2.3487427      0.0047337952   0.18563793     2.3487298      4.7481797    
     20400   5.0236431      2.5093097      2.7487409e-05  0.19632126     2.5092967      5.0146826    
     20500   5.2136154      2.6042009     -0.0038103797   0.19601535     2.604187       5.1474074    
     20600   4.6333134      2.31434       -0.0040324606   0.18119842     2.3143274      4.6845594    
     20700   4.9758295      2.4854269     -0.011897991    0.19320637     2.4854128      5.1348348    
     20800   5.0166862      2.5058347      0.0018679675   0.19975253     2.5058213      4.9782017    
     20900   5.274999       2.634862       0.0015664789   0.21087544     2.6348485      5.0995064    
     21000   4.861811       2.4284746     -0.0046886135   0.19028876     2.428461       4.992591     
     21100   5.0383482      2.5166549      0.0070232056   0.19840241     2.5166414      5.0311327    
     21200   4.93679        2.4659266     -0.0073655442   0.19360586     2.4659134      4.9552662    
     21300   4.8903283      2.442719       0.0075452473   0.19927338     2.4427056      4.9986704    
     21400   5.0509943      2.5229717     -0.0097174096   0.19401919     2.5229583      5.0652294    
     21500   5.1815802      2.5881993      0.0057928354   0.19832791     2.5881854      5.1867351    
     21600   5.1850103      2.5899127     -0.010002067    0.1999211      2.5898992      5.066095     
     21700   5.0837115      2.5393139     -0.012587499    0.19697927     2.5393003      5.0670545    
     21800   5.1029849      2.548941      -0.0062043086   0.19946687     2.5489278      4.9710593    
     21900   5.065536       2.5302352      0.0085695262   0.20141366     2.5302217      5.0743168    
     22000   4.9356326      2.4653485      0.0075715668   0.19781679     2.4653349      5.0712607    
     22100   5.1177595      2.5563209      0.01269562     0.20395466     2.5563081      4.9190642    
     22200   4.948177       2.4716144      0.0016280392   0.19828975     2.4716014      4.9747103    
     22300   5.2796274      2.6371739      0.0057906792   0.20989101     2.6371606      5.1087346    
     22400   5.1753003      2.5850625     -0.0033296824   0.19865601     2.5850489      5.1055488    
     22500   5.0572739      2.5261083      0.034936683    0.20945186     2.5260949      5.0728297    
     22600   4.9808335      2.4879263     -0.0050041538   0.19098747     2.4879128      4.9988688    
     22700   5.1927383      2.5937728      0.012432511    0.20710756     2.5937591      5.1058215    
     22800   4.8023073      2.3987525      0.012641109    0.19255383     2.3987389      4.9653186    
     22900   5.1648892      2.5798621      0.0088702138   0.20882603     2.5798489      5.0689534    
     23000   5.2210245      2.6079017     -0.012421579    0.20760051     2.6078879      5.2025602    
     23100   4.9755742      2.4852993     -0.00047100827  0.19665798     2.4852864      4.929507     
     23200   4.936872       2.4659675     -0.0049447887   0.19057804     2.4659545      4.912288     
     23300   4.8150299      2.4051074     -0.013177031    0.183774       2.4050946      4.8568052    
     23400   5.0875277      2.5412201     -0.0045577155   0.19877988     2.5412066      5.0889005    
     23500   5.0201176      2.5075487     -0.006773325    0.19824322     2.5075353      4.943538     
     23600   5.2641301      2.629433       0.0031232329   0.20733542     2.6294195      5.1280655    
     23700   5.0151355      2.5050602     -0.01167962     0.19434141     2.5050469      4.9846839    
     23800   5.0751515      2.5350382     -0.020061166    0.19474676     2.5350247      5.0654114    
     23900   5.0911812      2.543045       0.017308217    0.20894505     2.5430313      5.1048642    
     24000   5.0404953      2.5177274     -0.024014883    0.19667874     2.517714       5.0309604    
     24100   5.1036703      2.5492833     -0.013640986    0.19056293     2.5492697      5.1090886    
     24200   4.9345547      2.46481       -0.0074943766   0.18604912     2.4647967      4.9364497    
     24300   5.0611389      2.5280389     -0.0071937159   0.19014457     2.5280255      4.993442     
     24400   5.3475989      2.6711256     -0.012645776    0.20592383     2.6711121      5.1017044    
     24500   5.1156311      2.5552577     -0.0084098882   0.20156117     2.5552441      5.0912135    
     24600   5.0096569      2.5023236      0.011899024    0.19843814     2.5023099      5.1661747    
     24700   4.9688455      2.4819384     -0.017447645    0.19132522     2.481925       5.0534331    
     24800   4.9178787      2.4564804      0.015924124    0.20397737     2.4564675      4.8887327    
     24900   5.0490045      2.5219777     -0.013638612    0.20140302     2.5219643      5.0510292    
     25000   4.8053168      2.4002558     -0.0081899444   0.18747198     2.4002427      4.8591286    
     25100   4.9308185      2.4629438     -0.0029672387   0.1957546      2.4629306      4.9782273    
     25200   5.2068772      2.6008352     -0.0014596899   0.20718756     2.6008218      5.0733654    
     25300   5.4330021      2.7137846     -0.0030077285   0.21576593     2.7137711      5.1697944    
     25400   4.8833909      2.4392538      0.0042906158   0.19085408     2.4392401      5.0459004    
     25500   5.2545351      2.6246403      0.015873661    0.20878467     2.6246265      5.1423804    
     25600   4.8838902      2.4395032     -0.0052158155   0.18603886     2.4394899      4.9386192    
     25700   5.3237364      2.6592063     -0.0037694011   0.21086502     2.6591925      5.2016816    
     25800   5.044575       2.5197652     -0.016526389    0.19230931     2.5197516      5.1195422    
     25900   5.1472637      2.5710582     -0.0097094312   0.19703404     2.5710446      5.0692136    
     26000   4.9652725      2.4801536     -0.015304684    0.19920075     2.4801398      5.0382644    
     26100   5.0055739      2.5002842      0.00057507833  0.20464273     2.5002708      4.9643679    
     26200   5.1144224      2.554654       0.0069521814   0.20724204     2.5546406      5.0415377    
     26300   4.6629186      2.3291278     -0.0010418609   0.18196484     2.3291151      4.8023144    
     26400   5.0666073      2.5307703     -0.0028914043   0.19901757     2.5307571      4.9607888    
     26500   4.7061669      2.3507304     -0.0047086481   0.1843961      2.3507171      4.9029592    
     26600   5.026126       2.5105499     -0.015222579    0.19528119     2.5105365      5.0299102    
     26700   5.0723098      2.5336188     -0.0050463312   0.20107608     2.5336053      5.0058141    
     26800   5.2084172      2.6016044     -0.019365284    0.20142346     2.6015908      5.1081124    
     26900   5.0426536      2.5188055      0.0072678747   0.19738995     2.5187923      5.012861     
     27000   4.9570885      2.4760657     -0.0015837939   0.18870278     2.4760519      5.093413     
     27100   4.808073       2.4016325      0.002222388    0.19371927     2.4016195      4.8592817    
     27200   5.1457734      2.5703138     -0.0054824176   0.20561306     2.5703         5.0818979    
     27300   4.8404135      2.4177865     -0.0025502764   0.19003432     2.4177733      4.9339724    
     27400   4.9082075      2.4516496      0.0031945714   0.19504434     2.4516364      4.909222     
     27500   4.9566405      2.4758419      0.0022709576   0.19773264     2.4758281      5.067591     
     27600   5.070384       2.5326568      0.0061387034   0.20203015     2.5326437      5.0054613    
     27700   5.2264031      2.6105883     -0.008476646    0.20065471     2.610575       5.1877058    
     27800   4.7403174      2.3677885      0.0094584434   0.19131439     2.3677756      4.8818424    
     27900   5.0026862      2.4988418      0.017422499    0.20087515     2.4988284      5.002556     
     28000   5.0002052      2.4976025     -0.0046880781   0.19990706     2.4975894      5.0052117    
     28100   5.0999339      2.547417      -0.011524356    0.19909279     2.5474038      4.9557126    
     28200   5.0358639      2.515414       0.0038729119   0.1999414      2.5154008      5.0197002    
     28300   4.9590359      2.4770384     -0.0059246965   0.18937127     2.4770253      4.9280444    
     28400   5.0818142      2.5383662     -0.0014856496   0.192996       2.5383528      5.0265926    
     28500   5.0776588      2.5362906     -0.0053603275   0.20991855     2.5362774      4.9976515    
     28600   5.0231082      2.5090425      0.0041724242   0.19426133     2.5090295      4.9121711    
     28700   4.9283526      2.4617121      0.00020859055  0.18730751     2.4616994      4.8692495    
     28800   5.1645416      2.5796885     -0.0099439754   0.19929951     2.579675       5.0981882    
     28900   5.0210842      2.5080316     -0.0047374169   0.19754778     2.5080185      4.9189136    
     29000   5.0771146      2.5360188     -0.021190893    0.18880747     2.5360052      5.0254642    
     29100   4.9936976      2.4943519     -0.0081521603   0.1991233      2.4943386      4.9444743    
     29200   5.1063784      2.550636      -0.009091257    0.19898685     2.5506225      5.0342147    
     29300   5.0742204      2.5345731     -0.0031057825   0.19315167     2.5345594      5.0785108    
     29400   4.7655761      2.3804053     -0.0040481117   0.19219489     2.3803921      4.9592053    
     29500   5.0423997      2.5186787     -0.0031691979   0.19708809     2.5186658      4.9813106    
     29600   5.1213955      2.5581371     -0.00022426235  0.20536684     2.5581233      5.058793     
     29700   5.0772954      2.5361091     -0.0025869663   0.19279039     2.5360956      5.0717205    
     29800   5.346316       2.6704848     -0.0040055873   0.20973159     2.6704709      5.2592356    
     29900   4.9570057      2.4760243     -0.0058503449   0.19654011     2.4760105      5.0881347    
     30000   5.2635192      2.6291278     -0.009644559    0.20435502     2.6291145      5.0871241    
     30100   4.9735868      2.4843066      0.0016081326   0.20079259     2.4842935      4.9105883    
     30200   5.1629477      2.5788924     -0.005472587    0.19614595     2.5788792      5.0376889    
     30300   4.9019339      2.448516      -0.0054201552   0.18893971     2.4485024      4.999864     
     30400   4.9929841      2.4939955     -0.010053909    0.19390492     2.4939822      5.080792     
     30500   5.0887663      2.5418388      0.0063112721   0.2046388      2.5418253      5.0576223    
     30600   5.0848477      2.5398814     -0.0049555723   0.20073679     2.5398683      5.0027894    
     30700   5.027304       2.5111384      0.0075592168   0.20446784     2.5111249      5.0758396    
     30800   4.8717964      2.4334623     -0.0025810386   0.18851847     2.4334489      4.9957358    
     30900   4.9931434      2.4940751      0.0096378449   0.19939194     2.4940618      4.9664349    
     31000   4.9985328      2.4967671      0.0062995123   0.19398653     2.4967536      5.0539847    
     31100   4.9887876      2.4918994     -0.010779504    0.19905        2.4918857      5.1058988    
     31200   4.9336695      2.4643679     -0.0013518283   0.19665044     2.4643548      4.9245655    
     31300   5.0180287      2.5065053     -0.00044974335  0.19671994     2.5064921      4.9818329    
     31400   5.0828275      2.5388723      0.0074258772   0.19607691     2.5388587      5.0911836    
     31500   5.1772778      2.5860502     -0.0086116522   0.19870977     2.5860369      5.035158     
     31600   4.9432314      2.4691441     -0.004315351    0.19559962     2.4691307      5.0056046    
     31700   5.0802532      2.5375864      0.0061559629   0.20270662     2.5375732      4.9844379    
     31800   5.1020065      2.5484523     -0.0037790522   0.1992358      2.5484385      5.120049     
     31900   4.9284923      2.4617819      0.014702968    0.2015061      2.4617688      4.942966     
     32000   5.0136407      2.5043136      0.0001199598   0.19821117     2.5043004      4.9353336    
     32100   4.9731271      2.484077      -0.012021875    0.1951174      2.4840639      4.9566491    
     32200   5.0294554      2.512213       0.004085204    0.20109115     2.5121993      5.0195364    
     32300   5.0272767      2.5111247     -0.005712443    0.18953886     2.5111115      4.9917425    
     32400   5.0938146      2.5443604     -0.0065679662   0.1919007      2.5443467      5.131431     
     32500   4.9978719      2.496437      -0.0014924637   0.19608946     2.4964237      5.0050144    
     32600   4.9818088      2.4884135      0.0026118834   0.19787019     2.4884004      4.9643077    
     32700   5.0162222      2.505603       0.0066431665   0.1917941      2.5055896      5.037866     
     32800   5.0431442      2.5190505      0.0014498086   0.19294464     2.5190373      4.9576453    
     32900   5.0865753      2.5407444      1.8606107e-05  0.20102986     2.5407312      5.063706     
     33000   5.1067371      2.5508152     -0.015365434    0.19698178     2.550802       4.9991163    
     33100   5.1653253      2.58008       -6.2290797e-05  0.20377645     2.5800668      4.954187     
     33200   4.860175       2.4276574      0.0096174681   0.19496824     2.4276441      4.9709298    
     33300   5.0233434      2.50916       -0.014417254    0.19958451     2.5091469      4.9291236    
     33400   5.0201101      2.507545      -0.00085102557  0.19905422     2.5075317      5.0351628    
     33500   4.9115089      2.4532987      0.0026268652   0.19321098     2.4532854      4.9434208    
     33600   5.1361452      2.5655045     -0.00190905     0.20431377     2.565491       5.1597269    
     33700   5.0246951      2.5098352      0.0059537683   0.19687477     2.5098213      5.1440897    
     33800   5.2364831      2.6156233     -0.017667407    0.20005166     2.6156098      5.1320937    
     33900   5.1420767      2.5684673     -0.0051731635   0.20672621     2.5684538      5.1004451    
     34000   5.1054559      2.5501752     -0.0044249976   0.19695068     2.550162       4.9304105    
     34100   4.9593469      2.4771938      0.0074850608   0.19677344     2.4771804      4.9500128    
     34200   4.9989158      2.4969584     -0.0076845655   0.19678282     2.4969453      4.9689388    
     34300   4.9438926      2.4694744     -0.0050818031   0.19203051     2.4694609      4.9285509    
     34400   4.9715325      2.4832805     -0.0007695769   0.1950273      2.4832671      5.0148148    
     34500   5.0439758      2.5194659     -0.0067803785   0.194347       2.5194528      5.033547     
     34600   5.0563839      2.5256638     -0.0050059685   0.19167071     2.5256507      4.9653529    
     34700   5.0407606      2.5178599      0.0061742674   0.20245793     2.5178467      5.0261359    
     34800   5.1075095      2.551201      -0.0055682358   0.19990029     2.5511874      5.1593324    
     34900   4.9878577      2.4914349     -0.001328886    0.19236088     2.4914215      5.0239323    
     35000   5.0028347      2.4989159     -0.0090957349   0.19408173     2.498903       4.9894007    
     35100   5.1126687      2.553778      -0.0057197541   0.19642053     2.5537646      5.052387     
     35200   5.0127204      2.5038539     -0.011375175    0.19301924     2.5038409      4.9583067    
     35300   5.1278972      2.5613847     -5.904471e-05   0.20180778     2.5613713      5.0700144    
     35400   4.9380998      2.4665809     -0.010238307    0.19128939     2.4665678      4.9330395    
     35500   5.0596479      2.5272941     -0.011237378    0.18538456     2.5272809      4.9562828    
     35600   4.7669218      2.3810774      0.0061966491   0.18677163     2.3810646      4.8489903    
     35700   5.0873081      2.5411104     -0.00089857923  0.20087822     2.5410968      5.0628789    
     35800   4.9643417      2.4796887     -0.0079932733   0.19495464     2.4796753      5.0128602    
     35900   5.0166593      2.5058213     -0.0036884317   0.19645007     2.5058082      4.9740492    
     36000   5.1575767      2.5762096      0.0035082006   0.20341935     2.5761957      5.2175014    
     36100   4.9332634      2.4641651     -0.010303517    0.1965889      2.4641521      4.8947851    
     36200   4.8891262      2.4421185     -0.007517342    0.19099802     2.4421057      4.8603743    
     36300   4.9806784      2.4878489     -0.0093598425   0.19091319     2.4878357      4.9387794    
     36400   5.0825441      2.5387308      0.0090426175   0.20594221     2.5387178      4.9884331    
     36500   4.802484       2.3988408      0.0016105805   0.18781493     2.3988275      4.8790707    
     36600   5.0717415      2.5333349     -0.0073395592   0.19809884     2.5333214      5.0308596    
     36700   5.1553526      2.5750986      0.0024259707   0.20327709     2.5750852      5.0917812    
     36800   4.9976665      2.4963344     -0.015253883    0.19778526     2.4963208      5.0611491    
     36900   4.9519517      2.4734999     -0.010934547    0.19117345     2.473486       5.0204442    
     37000   5.0119285      2.5034583     -0.0064747635   0.19956716     2.5034451      4.9796747    
     37100   4.8248897      2.4100324     -0.017020237    0.18762091     2.4100193      4.9021705    
     37200   5.1385162      2.5666888      0.0033434487   0.19518528     2.5666754      5.0034507    
     37300   4.8702395      2.4326847      0.00022724915  0.19119533     2.4326717      4.8471472    
     37400   4.966803       2.4809181      0.0042005176   0.20126097     2.480905       4.9782726    
     37500   4.9804051      2.4877123      0.0041098321   0.198156       2.4876992      4.9119104    
     37600   4.8427861      2.4189716      0.00074792077  0.18766743     2.4189584      4.9147771    
     37700   4.7601965      2.3777181     -0.0016841712   0.18443171     2.377705       4.835658     
     37800   4.840923       2.418041      -0.0069379461   0.18866091     2.4180277      4.9373793    
     37900   5.1209993      2.5579392      0.011302749    0.20388344     2.5579256      5.128342     
     38000   4.8796425      2.4373814     -0.0014342916   0.19346034     2.4373678      5.0727808    
     38100   4.9855409      2.4902777      0.012589055    0.20251859     2.4902647      4.9372957    
     38200   4.946048       2.470551      -0.00010262685  0.19311177     2.4705376      5.0156661    
     38300   5.2501572      2.6224535     -0.010279642    0.20457787     2.6224395      5.2196131    
     38400   5.2607068      2.627723      -0.0094479882   0.20096205     2.6277095      5.0719356    
     38500   5.0074296      2.5012111      0.0005560906   0.19848948     2.5011979      5.0032633    
     38600   5.1649701      2.5799026      0.010606326    0.20785861     2.5798894      5.0019549    
     38700   5.0449263      2.5199407      0.001694148    0.20015596     2.519927       5.0831748    
     38800   4.916884       2.4559835     -0.01472228     0.18361269     2.4559706      4.9078585    
     38900   4.9410774      2.4680682     -0.0013056145   0.20051008     2.4680546      5.0675113    
     39000   5.1825273      2.5886724      0.0016260208   0.20317787     2.5886586      5.1382499    
     39100   4.863493       2.4293148     -0.003103908    0.19369175     2.4293011      4.9939156    
     39200   4.9132456      2.4541662      0.0097987008   0.19295464     2.4541532      4.9096116    
     39300   4.9442949      2.4696753      0.01703417     0.20215973     2.4696622      4.8701083    
     39400   4.8249748      2.4100749     -0.0066695445   0.18939463     2.4100618      4.8993642    
     39500   4.8678574      2.4314948     -0.01018689     0.19071387     2.4314817      4.9716971    
     39600   4.9432467      2.4691517      0.00053528987  0.19819537     2.4691382      5.024343     
     39700   5.0488094      2.5218803      0.0054552058   0.19639621     2.5218667      5.0928515    
     39800   5.012914       2.5039505      0.0064236198   0.20835248     2.5039371      4.983602     
     39900   5.1502368      2.5725433     -0.0040818942   0.21040409     2.5725299      5.1370824    
     40000   4.8819638      2.4385409      0.01861477     0.19936925     2.4385275      4.9257524    
     40100   4.8721219      2.4336249      0.011157955    0.19200273     2.433612       4.8474073    
     40200   4.9267425      2.4609079     -0.011323998    0.19188077     2.4608946      4.919654     
     40300   5.1873363      2.5910745      0.0020500519   0.19559838     2.5910611      5.0371142    
     40400   4.772779       2.3840031      0.000255103    0.1866848      2.3839897      5.007706     
     40500   4.8748827      2.4350039      0.0089673149   0.19851008     2.4349908      4.9343671    
     40600   5.1617709      2.5783046      0.0041389563   0.2000422      2.5782912      5.0385716    
     40700   5.1078285      2.5513604     -0.010443779    0.19761559     2.5513468      5.0980786    
     40800   5.0780546      2.5364883     -0.014184167    0.20168152     2.5364744      5.1631349    
     40900   5.045868       2.520411      -0.0041026494   0.19146068     2.5203977      5.0401661    
     41000   5.0537968      2.5243715     -0.0033426404   0.1957227      2.5243582      4.9832021    
     41100   5.1702876      2.5825587      0.0089861446   0.213604       2.5825451      5.1185547    
     41200   5.1311774      2.5630231     -0.0060568297   0.20296775     2.5630098      4.9978086    
     41300   5.1801033      2.5874616      0.0029249401   0.20550135     2.5874478      5.0354229    
     41400   5.1164229      2.5556532     -0.00059516508  0.19651634     2.5556394      5.1349661    
     41500   5.2280154      2.6113937     -0.006460149    0.19939312     2.61138        5.0611438    
     41600   5.000786       2.4978926      0.0078329513   0.1944782      2.4978801      4.7967889    
     41700   4.8008422      2.3980207      0.0089338888   0.19391029     2.3980082      4.7646264    
     41800   5.0693368      2.5321337      0.022493964    0.21758584     2.5321201      5.0413686    
     41900   5.0887047      2.541808       0.0027948059   0.20530786     2.5417945      5.0570682    
     42000   4.9901375      2.4925737      0.007278348    0.19910041     2.4925598      5.0852214    
     42100   4.9655027      2.4802686     -0.0042693277   0.20122349     2.4802557      4.9727498    
     42200   5.0393767      2.5171687     -0.0082645082   0.18911526     2.5171551      5.0713413    
     42300   5.3256331      2.6601538      0.00070950587  0.21139659     2.6601398      5.2072518    
     42400   5.0122922      2.5036399      0.00084570694  0.20022094     2.5036265      5.0003148    
     42500   5.025516       2.5102453     -0.0030949403   0.19869255     2.5102315      5.1163725    
     42600   4.8189602      2.4070706     -0.0036882457   0.18786851     2.4070573      4.9999607    
     42700   5.0847333      2.5398243     -0.013645742    0.19151925     2.539811       5.0158334    
     42800   4.9357731      2.4654187      0.0091098356   0.20174569     2.4654052      4.996246     
     42900   5.1265723      2.5607229     -0.0068757876   0.196074       2.5607089      5.1130977    
     43000   5.2257515      2.6102629      0.0012299374   0.20080654     2.6102495      5.1250463    
     43100   4.968123       2.4815775     -0.0029151602   0.19764841     2.4815643      4.9585198    
     43200   4.9951938      2.4950993     -0.017005403    0.19359513     2.4950863      4.8923132    
     43300   5.1187364      2.5568089     -0.005287496    0.19629373     2.5567955      4.9834271    
     43400   4.9988015      2.4969013     -0.00032666933  0.19370337     2.4968883      4.9729012    
     43500   5.0981408      2.5465213      0.0016548346   0.20131893     2.5465082      5.0233488    
     43600   4.8270958      2.4111344      0.0075226096   0.19247182     2.4111214      4.8628766    
     43700   4.9816056      2.488312       0.0036847566   0.19503207     2.4882989      4.8882535    
     43800   4.9805305      2.487775       0.017189799    0.2050919      2.4877614      4.9952001    
     43900   4.8599214      2.4275308     -0.010243022    0.19483588     2.4275176      4.9572778    
     44000   4.8800202      2.4375701      0.0050425973   0.18977623     2.4375571      4.8519243    
     44100   5.118752       2.5568166     -0.009227708    0.19940583     2.5568033      5.0419183    
     44200   5.1288879      2.5618795     -0.019606634    0.20378834     2.5618663      5.0011791    
     44300   5.1622305      2.5785341     -0.019281437    0.19317177     2.5785206      5.0495221    
     44400   4.8333487      2.4142577     -0.0050713634   0.1918197      2.4142441      5.0039211    
     44500   5.0821357      2.5385268      0.00010049255  0.20147788     2.5385138      4.9006871    
     44600   4.9702696      2.4826496     -0.012473624    0.19263627     2.4826361      5.0333706    
     44700   4.9538097      2.474428       0.017552444    0.20437985     2.4744144      5.0995886    
     44800   4.9221012      2.4585896      0.012071163    0.19873976     2.4585763      4.9221337    
     44900   4.9688869      2.481959      -0.006032271    0.18682719     2.4819454      5.0086993    
     45000   4.9709355      2.4829823     -0.0027672925   0.19853727     2.4829685      5.0675035    
     45100   5.0778128      2.5363675     -0.012057606    0.19888048     2.5363545      5.0223175    
     45200   4.8418304      2.4184943     -0.0089626136   0.18715888     2.418481       4.940873     
     45300   4.7015274      2.3484129     -0.010870403    0.18125468     2.3484         4.8443919    
     45400   5.0028672      2.4989322      0.01189214     0.20102265     2.4989185      5.0820134    
     45500   4.9066577      2.4508755      0.0017049378   0.19140393     2.4508622      5.00177      
     45600   4.9605239      2.4777817      0.007998872    0.19716671     2.4777684      4.9967432    
     45700   4.8818699      2.438494      -0.0034681067   0.18602073     2.4384807      4.9773267    
     45800   4.9060713      2.4505826     -0.016339755    0.18771883     2.4505693      4.9207602    
     45900   5.14858        2.5717157     -0.00020320082  0.20031182     2.571702       5.1475542    
     46000   5.1793835      2.5871021     -0.008762474    0.20172879     2.5870885      5.1215469    
     46100   4.8853172      2.4402159      0.013741313    0.19429672     2.4402025      4.9786393    
     46200   4.8346238      2.4148946      0.016037229    0.19693782     2.4148817      4.868821     
     46300   5.0729601      2.5339436      0.0081312708   0.20585192     2.5339305      5.0003778    
     46400   4.9364021      2.4657328      0.0087441309   0.19261833     2.4657197      4.9058183    
     46500   5.1865242      2.5906688     -0.0098758733   0.19874483     2.5906556      5.0843492    
     46600   5.1253836      2.5601291      0.011347328    0.20094557     2.5601155      5.0487607    
     46700   4.8553957      2.4252701     -0.0204564      0.19023461     2.4252568      4.9717551    
     46800   4.9700133      2.4825217     -0.0070012194   0.19667473     2.4825083      4.9495757    
     46900   5.0602043      2.527572       0.0021063891   0.19882166     2.5275588      5.0525044    
     47000   5.1617917      2.5783149      0.0038023076   0.20535538     2.5783015      5.0676819    
     47100   4.9885635      2.4917875     -0.0090688913   0.18766528     2.4917746      4.8981166    
     47200   5.0004494      2.4977245     -0.00082105243  0.1982115      2.4977107      5.1005062    
     47300   5.0464214      2.5206875     -0.0076873351   0.20020752     2.5206741      5.027464     
     47400   4.9226604      2.4588689      0.0068225437   0.19164236     2.458856       4.8304941    
     47500   5.084331       2.5396233     -0.015702959    0.19500707     2.5396101      4.9659698    
     47600   4.8710809      2.4331049      0.017436957    0.20031019     2.4330917      4.8935563    
     47700   5.0700009      2.5324655     -0.011954703    0.1954753      2.5324518      5.1123412    
     47800   4.974424       2.4847248      0.005498392    0.20264989     2.4847115      4.9945856    
     47900   5.2435817      2.6191691     -0.0023273932   0.20210338     2.6191554      5.1333701    
     48000   4.8552911      2.4252179      0.0028317361   0.18793898     2.4252047      4.9538044    
     48100   4.9610487      2.4780438     -0.0036485034   0.19037305     2.4780304      4.9542382    
     48200   4.9456219      2.4703381      0.00045760424  0.19367043     2.4703251      4.9843828    
     48300   4.9451493      2.4701021      0.0060424301   0.19658354     2.4700892      4.8816582    
     48400   4.8312967      2.4132327     -0.014775726    0.19135559     2.4132193      4.9517157    
     48500   5.365953       2.6802935     -0.010185004    0.21024489     2.6802798      5.1443954    
     48600   5.053437       2.5241918      0.0007016001   0.19717929     2.5241781      5.0873165    
     48700   4.9518055      2.4734268     -0.0070249486   0.19018648     2.4734134      4.9727413    
     48800   4.9644677      2.4797516     -0.022835407    0.19800436     2.4797384      4.9493996    
     48900   4.8584326      2.4267871     -0.011610315    0.19018934     2.426774       4.8800836    
     49000   5.0339006      2.5144334     -0.01528082     0.19600886     2.5144196      5.0364511    
     49100   5.0523844      2.523666      -0.0042543477   0.19467994     2.523653       4.8973978    
     49200   5.1301156      2.5624927      0.0025669913   0.20017003     2.5624798      4.922151     
     49300   5.0504636      2.5227065      0.0017796543   0.19742494     2.5226931      5.0833359    
     49400   5.0432257      2.5190912     -0.0069366178   0.20034109     2.5190775      5.1459849    
     49500   5.0759504      2.5354372     -0.008938499    0.19042562     2.5354238      5.0412499    
     49600   4.8968921      2.4459976     -0.00068834684  0.18738514     2.4459845      4.8980396    
     49700   5.0445024      2.5197289     -0.024205899    0.19088193     2.5197157      4.9504238    
     49800   5.3699148      2.6822725      0.00039294131  0.21054135     2.6822587      5.2192398    
     49900   5.1617134      2.5782758     -0.014732357    0.19846348     2.5782624      5.0035043    
     50000   5.0121222      2.503555      -0.0012807232   0.19871012     2.5035412      5.0941765    
     50100   4.855051       2.425098      -0.0088553399   0.19331675     2.4250847      4.9169534    
     50200   4.9007293      2.4479143      0.0022926058   0.19292349     2.4479009      4.9483468    
     50300   5.0920728      2.5434904      0.0087533293   0.20405788     2.5434771      5.0319479    
     50400   4.7975829      2.3963926     -0.0034678843   0.17990895     2.3963796      4.8310325    
     50500   4.9405986      2.467829       0.010639235    0.20016257     2.4678156      4.940351     
     50600   5.0560397      2.5254918      0.0014202726   0.20292169     2.5254782      5.0938448    
     50700   4.9816072      2.4883128      0.0086693122   0.20294835     2.4882995      5.0318265    
     50800   5.1847351      2.5897752      0.0031262747   0.20955122     2.5897615      5.1874611    
     50900   4.680325       2.3378224     -0.0045393523   0.18620073     2.3378094      4.8619828    
     51000   4.9834172      2.4892169     -0.0039571331   0.19560016     2.4892034      5.0471304    
     51100   5.2274659      2.6111192      0.0014919851   0.20918999     2.6111058      5.1476488    
     51200   5.0397485      2.5173544      0.018992762    0.20772207     2.5173412      5.0005264    
     51300   4.9654759      2.4802552     -0.0076546846   0.19473644     2.4802421      5.0183186    
     51400   4.9835892      2.4893028     -0.015239606    0.19367069     2.4892899      4.875409     
     51500   5.0522534      2.5236006      0.0046730168   0.20001644     2.5235872      4.9971804    
     51600   5.1155526      2.5552185     -0.010661318    0.1966336      2.5552054      5.0790965    
     51700   5.2242523      2.609514      -0.0011843297   0.20592414     2.609501       5.0108441    
     51800   5.0652407      2.5300877     -0.0032253118   0.19745451     2.5300747      4.9861756    
     51900   4.8786961      2.4369087      0.0016195913   0.19134601     2.4368957      4.9608621    
     52000   4.9898299      2.49242       -0.0079075564   0.20109395     2.4924065      5.0466304    
     52100   5.0120887      2.5035383     -0.0089028641   0.19425257     2.5035251      4.9872217    
     52200   5.1273462      2.5611094      0.012888179    0.2046726      2.5610963      5.0387576    
     52300   4.8358415      2.4155028     -0.00032809249  0.19375673     2.41549        4.8419233    
     52400   5.1784517      2.5866366     -0.0024428772   0.20477896     2.5866229      5.1640904    
     52500   4.9236273      2.4593519      0.0084020042   0.19616323     2.4593383      4.9754816    
     52600   5.209128       2.6019594     -0.0016760912   0.20480924     2.6019456      5.1474683    
     52700   5.0413289      2.5181438     -0.0072440649   0.18986435     2.5181306      4.9445532    
     52800   5.1789123      2.5868667      0.00066963831  0.20390698     2.586853       5.1277864    
     52900   5.0245364      2.5097559     -0.0029273995   0.2022277      2.5097427      4.967417     
     53000   5.0807223      2.5378208     -0.01360645     0.19465884     2.5378075      5.0209141    
     53100   5.1114677      2.5531781     -0.010633232    0.1956074      2.5531645      5.0977666    
     53200   5.083486       2.5392012      0.002077523    0.20286799     2.5391876      5.0811389    
     53300   5.1198191      2.5573496      0.00011096447  0.19855538     2.5573366      4.9508315    
     53400   5.0210058      2.5079924      0.0089854091   0.19949524     2.507979       5.0050134    
     53500   4.9877528      2.4913825     -0.002751588    0.19778252     2.4913691      5.0011441    
     53600   5.1609361      2.5778876     -0.012020678    0.19989012     2.5778742      5.0953829    
     53700   5.2601363      2.6274381     -0.0040402714   0.20695358     2.6274247      5.0627883    
     53800   5.0305935      2.5127815      0.011683975    0.20442396     2.5127681      4.9905209    
     53900   4.9229701      2.4590236     -0.00185584     0.19146788     2.4590103      4.9242257    
     54000   4.9634968      2.4792667     -0.013163935    0.19841627     2.4792535      4.922976     
     54100   5.005406       2.5002003      0.0078155629   0.19922961     2.5001868      5.0257103    
     54200   5.0292607      2.5121157      0.0031428732   0.19734394     2.5121026      4.9251239    
     54300   5.0300717      2.5125208      0.0032974256   0.19683749     2.5125068      5.1332639    
     54400   4.9133784      2.4542325     -0.0013329125   0.19220246     2.4542191      4.9530901    
     54500   5.3482347      2.6714432      0.00042572373  0.21008398     2.6714294      5.1661372    
     54600   5.0977428      2.5463225      0.00088589114  0.20387106     2.5463093      5.0358536    
     54700   5.1792363      2.5870285     -0.0052211112   0.1987701      2.5870151      5.0872725    
     54800   4.9280984      2.4615852     -0.0078697907   0.18894643     2.4615723      4.8454577    
     54900   4.8494587      2.4223046     -0.00053762305  0.18783432     2.4222913      4.943407     
     55000   5.0004431      2.4977213      0.0034534762   0.19875465     2.4977076      5.0738787    
     55100   4.971642       2.4833352     -0.003181556    0.18633393     2.4833211      5.1253821    
     55200   4.9957954      2.4953998      0.0014760543   0.20040804     2.4953866      4.9383358    
     55300   4.9641261      2.479581       0.00023726722  0.19218566     2.4795676      5.0228369    
     55400   4.9847402      2.4898777     -0.0044708983   0.19679727     2.4898643      5.1188075    
     55500   4.7788028      2.387012      -0.0021727317   0.19212904     2.3869988      4.8817109    
     55600   4.9689216      2.4819764     -0.014833507    0.19356755     2.4819629      4.9591178    
     55700   5.0087983      2.5018947     -0.015518516    0.19005145     2.5018812      5.0523881    
     55800   4.9503486      2.4726991      0.009316781    0.19535159     2.4726862      4.8635352    
     55900   4.9208892      2.4579841     -0.016494195    0.18359856     2.457971       4.9648331    
     56000   4.607467       2.3014298     -0.010003111    0.18674573     2.3014169      4.7766436    
     56100   4.7524461      2.3738468      0.004891181    0.18552036     2.3738336      4.8934068    
     56200   5.0645875      2.5297615      0.0056339858   0.20143228     2.5297479      5.0648667    
     56300   4.8243206      2.4097482      0.0063202719   0.18944291     2.4097348      4.9827835    
     56400   5.0763898      2.5356567     -0.0093911678   0.19822054     2.5356436      4.9862056    
     56500   4.918707       2.4568942     -0.0057183786   0.19183231     2.4568805      5.0154864    
     56600   4.9231717      2.4591242      0.01048324     0.19434201     2.4591112      4.8551048    
     56700   5.0111788      2.5030838      0.0068194076   0.20807705     2.5030705      5.0355731    
     56800   4.9798398      2.48743       -0.018920679    0.19542762     2.4874169      4.9291814    
     56900   5.0331067      2.5140368      0.0012094081   0.19411004     2.5140239      4.9724644    
     57000   5.0558923      2.5254182     -0.0073114468   0.20290681     2.5254047      4.9994933    
     57100   5.021197       2.5080879     -0.0032367339   0.20286565     2.5080745      4.9895152    
     57200   5.0546607      2.524803      -0.0048630952   0.19389327     2.5247893      5.0509508    
     57300   5.0437146      2.5193354      0.0042304721   0.20253214     2.5193216      5.0811103    
     57400   4.9927342      2.4938707      0.0001824509   0.20072223     2.4938569      5.0333747    
     57500   5.0915749      2.5432417      0.0058493211   0.20300279     2.5432284      5.0936001    
     57600   5.157021       2.575932      -0.00098144576  0.20346293     2.5759184      5.1466004    
     57700   5.1599811      2.5774106     -0.019458271    0.20184392     2.5773969      5.1583041    
     57800   5.1741451      2.5844855     -0.0029222635   0.20416487     2.5844722      5.073328     
     57900   5.0314432      2.5132059     -0.017733632    0.19089        2.513193       4.9362973    
     58000   4.9248566      2.4599659      0.0018367708   0.19672376     2.4599533      4.853222     
     58100   4.9945404      2.4947729      0.010355993    0.20110469     2.4947597      5.0076914    
     58200   5.1330196      2.5639433      0.0064395164   0.20995886     2.5639298      5.0634649    
     58300   5.0302514      2.5126106      0.0041180763   0.19920847     2.5125971      5.0092281    
     58400   5.0418913      2.5184247      0.0032297361   0.20157783     2.5184113      5.0488514    
     58500   4.8809162      2.4380176     -0.001187404    0.19345887     2.4380044      4.9562841    
     58600   5.1663415      2.5805876     -0.0089183567   0.20844526     2.580574       5.0892073    
     58700   5.216601       2.6056922     -0.00015734409  0.20381358     2.6056784      5.0876739    
     58800   4.7457752      2.3705147     -0.0042137038   0.18779467     2.3705015      4.9167842    
     58900   4.9542273      2.4746365      0.003612305    0.19778007     2.474623       5.0462802    
     59000   5.0617194      2.5283288      0.00037397548  0.19601409     2.5283153      5.0503347    
     59100   5.0213174      2.508148      -0.0026485761   0.19942475     2.5081345      5.0943722    
     59200   5.0495797      2.522265      -0.0022354948   0.20128494     2.5222516      5.0723005    
     59300   5.0109286      2.5029588     -0.00088274575  0.19507562     2.5029454      5.047828     
     59400   4.8304842      2.4128269      0.010895083    0.19139858     2.4128132      4.9914162    
     59500   5.003838       2.4994171     -0.010272499    0.19443706     2.4994039      4.9637652    
     59600   4.9058829      2.4504885     -0.0092993554   0.18852782     2.4504754      4.9089351    
     59700   5.1897611      2.5922857      0.0085258004   0.20078957     2.5922719      5.1782118    
     59800   5.226523       2.6106482      0.0027620831   0.20731455     2.6106348      5.1531799    
     59900   4.9428173      2.4689372     -0.00047600578  0.19368106     2.4689239      4.9762385    
     60000   4.9587629      2.476902      -0.0024153169   0.19766261     2.476889       5.0007307    
     60100   5.1451206      2.5699877     -0.0030328151   0.2019203      2.5699741      5.1284362    
     60200   4.91805        2.456566       0.0066660993   0.19075228     2.4565528      4.9520338    
     60300   5.0225766      2.508777       0.0038606171   0.20638235     2.5087635      5.0144269    
     60400   4.9897195      2.4923649     -0.0155848      0.1909358      2.4923515      4.9748302    
     60500   5.0033458      2.4991712      0.0016155556   0.19975662     2.4991577      5.0326303    
     60600   5.0074044      2.5011985      0.0024001269   0.19805355     2.5011851      5.0282603    
     60700   4.7838927      2.3895544     -0.011061064    0.1832798      2.3895411      4.9217779    
     60800   5.0351893      2.5150771     -0.011487787    0.19358599     2.515064       4.9984366    
     60900   4.9195898      2.4573351     -0.011647548    0.19468532     2.4573222      4.9341542    
     61000   5.1012237      2.5480612     -0.0028453221   0.20118245     2.5480476      5.1425022    
     61100   4.8501387      2.4226443     -0.00035494633  0.19353656     2.4226313      4.8782034    
     61200   5.0119155      2.5034518     -0.0007140322   0.19404851     2.5034384      5.0309141    
     61300   4.7659806      2.3806073      0.010418642    0.19315133     2.3805944      4.789216     
     61400   4.842338       2.4187478      0.0098476455   0.20055707     2.4187343      4.9832395    
     61500   4.8783592      2.4367404     -0.0026895716   0.19560536     2.4367271      4.9972814    
     61600   4.906684       2.4508886     -0.0070283906   0.18768201     2.4508755      4.9345444    
     61700   4.9707401      2.4828847      0.0015861868   0.19350972     2.4828712      5.0796298    
     61800   5.0501323      2.5225411     -0.0011012756   0.19955785     2.5225272      5.1551677    
     61900   5.13366        2.5642632     -0.0097845785   0.20355018     2.5642497      5.1298544    
     62000   4.9577076      2.476375       0.0055950094   0.19457684     2.476362       4.9051686    
     62100   5.0579164      2.5264293     -0.0013406258   0.19282622     2.5264158      5.0199217    
     62200   4.9781385      2.4865802     -0.0011766235   0.19528469     2.4865669      4.9568018    
     62300   5.0781333      2.5365276     -0.011564051    0.203745       2.5365144      5.0324177    
     62400   5.0758921      2.5354081      0.005906201    0.20251611     2.5353943      5.1513984    
     62500   4.9867162      2.4908647     -0.0023098671   0.19247967     2.4908518      4.8812136    
     62600   5.1666849      2.5807591     -0.011868778    0.20193725     2.5807457      5.070399     
     62700   5.0229718      2.5089744     -0.020600564    0.19487379     2.5089611      5.0477114    
     62800   5.1710246      2.5829268      0.0037702431   0.20088126     2.5829133      5.166161     
     62900   5.0085299      2.5017607     -0.015836627    0.19371784     2.5017474      5.072034     
     63000   5.1659182      2.5803761      0.0074209377   0.20741392     2.5803628      5.0579105    
     63100   4.9933178      2.4941623     -0.0033012762   0.1915592      2.4941492      4.9300569    
     63200   5.2440124      2.6193842      0.0065093193   0.21142308     2.6193707      5.1007874    
     63300   5.1244573      2.5596664     -0.010511348    0.19781852     2.5596521      5.2091741    
     63400   4.9992031      2.497102      -0.0071100292   0.19406504     2.4970885      4.9798587    
     63500   5.1406561      2.5677577     -0.0055200296   0.1965893      2.5677444      5.1066129    
     63600   5.1510833      2.5729661      0.0080234517   0.20486191     2.5729527      5.0872606    
     63700   5.0842814      2.5395986      0.0034854053   0.20044563     2.5395852      4.9873173    
     63800   5.0120753      2.5035316      0.0011294324   0.19446927     2.5035186      4.9047594    
     63900   4.9429607      2.4690089     -0.00063238878  0.19823118     2.4689959      4.9159639    
     64000   4.9864016      2.4907076     -0.0065050243   0.19170792     2.4906943      4.9479876    
     64100   4.9709528      2.4829909      0.0029375377   0.1990218      2.4829775      5.1165691    
     64200   5.0529513      2.5239492     -0.0055280555   0.19739024     2.523936       4.9811673    
     64300   4.9912701      2.4931394     -0.0036457013   0.19318332     2.4931263      4.9610907    
     64400   4.8844123      2.4397639     -0.0036046417   0.19109693     2.4397509      4.8888606    
     64500   5.1774037      2.5861131     -0.011667135    0.20486642     2.5860995      5.1567068    
     64600   4.8698703      2.4325002     -0.0085208001   0.19118048     2.4324871      5.0121599    
     64700   4.9071998      2.4511463      0.0027107519   0.19571891     2.4511329      4.9873117    
     64800   4.9496851      2.4723677      0.0086324882   0.19783929     2.4723544      4.9982536    
     64900   5.024667       2.5098212     -0.0087822831   0.20039546     2.5098082      4.9750931    
     65000   4.8231445      2.4091607     -0.0046766407   0.18776871     2.4091476      4.8869906    
     65100   4.9300734      2.4625717     -0.0084167669   0.20043637     2.4625587      4.9596392    
     65200   5.1352828      2.5650737     -0.018742258    0.20241724     2.5650604      5.0428152    
     65300   5.1615504      2.5781944     -0.0088352546   0.19876743     2.5781812      5.0312276    
     65400   4.8358821      2.4155231     -0.0040583683   0.18688299     2.4155101      4.9195903    
     65500   5.0183643      2.506673      -0.0024610281   0.19495644     2.5066594      5.0287989    
     65600   5.066218       2.5305759     -0.00379293     0.2027715      2.5305624      5.0747117    
     65700   4.9323453      2.4637065      0.0038831715   0.19592655     2.463693       5.0567383    
     65800   4.9153301      2.4552074      0.0199461      0.20663861     2.4551941      4.9595399    
     65900   4.7836874      2.3894519     -0.0062447232   0.19081197     2.3894385      4.8966876    
     66000   5.0171911      2.506087       0.0019783734   0.19162222     2.5060734      5.0914109    
     66100   5.095994       2.545449      -0.00026821437  0.20014702     2.545435       5.1098746    
     66200   4.9598361      2.4774382     -0.0094002965   0.19733202     2.4774247      5.0070174    
     66300   4.9362093      2.4656365      0.0096478013   0.20303843     2.4656231      5.0131839    
     66400   5.2269068      2.6108399     -0.0027822549   0.20772015     2.6108263      5.1077645    
     66500   5.1787466      2.5867839      0.0082354965   0.20154704     2.5867707      5.0213928    
     66600   5.1973481      2.5960754     -0.0087731031   0.19613044     2.5960615      5.2017854    
     66700   4.8812895      2.4382041      0.0073899949   0.19677321     2.4381911      4.9136835    
     66800   5.1172654      2.5560741     -0.0116712      0.19591275     2.5560608      5.0606913    
     66900   4.9733581      2.4841924     -0.0033418951   0.19557335     2.4841791      4.9650527    
     67000   4.8966932      2.4458982     -0.0026162899   0.1908341      2.4458853      4.9609053    
     67100   4.9589923      2.4770167     -0.0099012244   0.19096278     2.4770034      4.9517654    
     67200   5.0385236      2.5167425     -0.010879703    0.20099014     2.5167296      4.9618928    
     67300   5.0234627      2.5092196     -0.0059512284   0.20080048     2.5092064      4.9253922    
     67400   5.0868829      2.540898      -0.0063593915   0.18960683     2.5408846      5.0909449    
     67500   5.116459       2.5556713      0.00097650973  0.20339002     2.5556577      5.0884425    
     67600   4.9008849      2.447992      -0.0046556082   0.1941485      2.4479791      4.8841861    
     67700   4.8796467      2.4373835     -0.016665785    0.19048269     2.4373704      4.9683898    
     67800   5.0077773      2.5013848      0.0093861856   0.1957497      2.5013719      4.9101516    
     67900   4.9739269      2.4844765      0.00340617     0.19293697     2.4844631      4.9719621    
     68000   5.1820332      2.5884256      0.001798056    0.20465375     2.5884125      5.0283629    
     68100   4.8065692      2.4008813      0.0077785559   0.19535001     2.4008683      4.8762199    
     68200   5.0520663      2.5235071     -0.0065044585   0.19364165     2.5234938      5.0628313    
     68300   4.9912894      2.4931491     -0.010767008    0.19648114     2.493136       4.9594119    
     68400   4.8900246      2.4425673     -0.0050896382   0.18456116     2.4425539      4.9068802    
     68500   4.9307688      2.462919      -0.0081038318   0.19228682     2.462906       5.0093285    
     68600   4.9108894      2.4529893     -0.0055814792   0.19394302     2.4529759      4.9125984    
     68700   4.8923661      2.4437369     -0.012872722    0.18848443     2.4437238      4.8765348    
     68800   5.0370125      2.5159877     -0.0066227359   0.19887118     2.5159741      5.0890729    
     68900   5.2032463      2.5990215     -0.008593927    0.20752246     2.5990078      5.156616     
     69000   5.0650802      2.5300076     -0.0016217975   0.19585405     2.5299943      5.0116269    
     69100   4.9344653      2.4647654     -0.006676886    0.19493392     2.4647524      4.8628703    
     69200   5.1710215      2.5829252     -0.0058424743   0.19819986     2.5829115      5.1279655    
     69300   4.8875558      2.4413341      0.0090863795   0.20038698     2.4413203      5.0388041    
     69400   4.9397495      2.4674049      0.0010459551   0.18907602     2.4673916      4.9496824    
     69500   5.0111784      2.5030836     -0.010213319    0.19039009     2.5030702      5.0509418    
     69600   4.9812712      2.488145      -0.014083601    0.20083958     2.4881317      5.0037355    
     69700   4.9672024      2.4811176     -0.0042867167   0.1950854      2.4811046      4.9513979    
     69800   5.0472855      2.5211191     -0.0035363746   0.19287541     2.5211058      5.0289598    
     69900   4.9471618      2.4711073     -0.0012549838   0.19243511     2.4710941      5.0083761    
     70000   5.1658863      2.5803602      0.00068443696  0.19647197     2.5803468      4.9891492    
     70100   4.7689732      2.3821021      0.0073009181   0.18511287     2.3820891      4.8661396    
     70200   5.1097346      2.5523124     -0.00097584014  0.20026748     2.5522986      5.0936167    
     70300   4.898173       2.4466374      0.0017245574   0.18727395     2.4466243      4.8940167    
     70400   4.9990949      2.4970479     -0.0058447052   0.19359252     2.4970347      4.915538     
     70500   5.185277       2.5900459     -0.013388427    0.20097265     2.5900327      4.9794496    
     70600   5.1256986      2.5602865      0.0068401944   0.20428683     2.5602735      5.0284729    
     70700   4.8820388      2.4385784     -0.0054233158   0.18926785     2.438565       4.9635546    
     70800   4.8083581      2.4017749     -0.0058470486   0.18940568     2.401762       4.8576364    
     70900   5.0198318      2.507406      -0.012832106    0.20135479     2.5073928      4.9844691    
     71000   5.1153441      2.5551144      0.0040436803   0.20573948     2.5551013      4.9508839    
     71100   4.7648191      2.3800272     -0.0034610844   0.18513655     2.380014       4.8549246    
     71200   4.9870216      2.4910173     -0.0048935613   0.19727974     2.4910041      5.0441714    
     71300   5.063251       2.5290939     -0.0052290256   0.19848516     2.5290806      4.9886998    
     71400   4.8454343      2.4202944      0.0027598267   0.18990818     2.4202814      4.8794513    
     71500   4.8058912      2.4005427      0.0028629405   0.19193874     2.4005296      4.883016     
     71600   4.947617       2.4713347     -0.00039640151  0.19867627     2.4713216      4.8621073    
     71700   4.875446       2.4352853      0.0049170279   0.19246182     2.4352721      4.9459546    
     71800   5.0497149      2.5223326      0.023940986    0.21371559     2.5223191      5.0851104    
     71900   4.9268044      2.4609388      0.0067355446   0.20071451     2.460926       4.9174534    
     72000   4.9280663      2.4615691      0.0032400654   0.1984514      2.4615558      4.9300539    
     72100   4.9402854      2.4676726     -0.0039479822   0.19086654     2.4676591      4.9774695    
     72200   4.9992244      2.4971126     -0.012872677    0.18976812     2.4970992      5.0432641    
     72300   5.1114515      2.55317       -0.025322624    0.19368649     2.5531566      5.0099406    
     72400   4.9512329      2.4731408     -0.0015957261   0.18694369     2.4731277      4.9147761    
     72500   4.9977411      2.4963717      0.010595129    0.20419518     2.4963582      5.0636766    
     72600   5.168951       2.581891      -0.0041966071   0.20130795     2.5818778      5.01099      
     72700   5.0470138      2.5209834     -0.00088874387  0.20579029     2.5209703      4.9855839    
     72800   4.8384345      2.416798      -0.0085819415   0.18971367     2.4167847      4.9656838    
     72900   5.056149       2.5255464      0.0039157827   0.20609077     2.5255328      5.0226983    
     73000   4.7516513      2.3734498      0.0054442564   0.18757407     2.3734372      4.8034429    
     73100   4.9295223      2.4622964     -0.0038684897   0.18969207     2.4622832      4.976864     
     73200   5.1813381      2.5880784     -0.0028528895   0.20108104     2.588065       5.0608938    
     73300   4.7369425      2.3661028     -0.0048902225   0.18484029     2.3660897      4.908754     
     73400   5.0992382      2.5470695      0.0057050531   0.20549068     2.547056       5.0106808    
     73500   5.1856142      2.5902143      0.0014557944   0.20757757     2.590201       5.0188528    
     73600   4.9890383      2.4920246     -0.0026546734   0.19336693     2.4920109      5.0739535    
     73700   5.0388043      2.5168827      0.0061543555   0.19553106     2.5168693      5.0765523    
     73800   5.0970983      2.5460006      0.0042902043   0.20115178     2.5459875      4.9891955    
     73900   4.9901389      2.4925744     -0.0090132354   0.19442395     2.4925613      4.9561472    
[...]
    981700   4.9039378      2.4495169     -0.0044144037   0.19199641     2.4495037      4.9446825    
    981800   5.0472154      2.5210841      0.012441889    0.19947762     2.5210704      5.0817569    
    981900   5.042497       2.5187272      0.0022552249   0.20250682     2.5187138      5.0110575    
    982000   5.0129084      2.5039478      0.0025827792   0.19279908     2.5039344      5.0534875    
    982100   5.0860568      2.5404854      0.0040984227   0.19964939     2.5404719      5.071587     
    982200   4.8142168      2.4047013      0.0039287569   0.18895498     2.4046877      5.0177786    
    982300   5.2394207      2.6170906     -0.0043254455   0.20542356     2.6170776      4.9565755    
    982400   4.8427251      2.4189412     -0.0041105675   0.19278134     2.4189279      4.9608556    
    982500   4.9431573      2.4691071      0.0079360179   0.19896278     2.4690941      4.9737471    
    982600   4.9184595      2.4567705      0.011634979    0.20354407     2.4567575      4.9087657    
    982700   5.1910138      2.5929114     -0.007923987    0.20712051     2.5928981      5.1443845    
    982800   5.0822757      2.5385967      0.010556319    0.20846238     2.5385833      5.0932818    
    982900   5.0162731      2.5056284     -0.0028930048   0.19846322     2.5056146      5.0579084    
    983000   4.8016906      2.3984445     -0.0071259514   0.18531438     2.3984311      4.9559825    
    983100   5.1267224      2.5607978     -0.0084087683   0.20398961     2.5607844      5.0619081    
    983200   5.2774901      2.6361063     -0.00099439267  0.20417965     2.6360929      5.0514667    
    983300   5.1106713      2.5527803      0.00044011734  0.20308328     2.5527669      5.0249569    
    983400   4.6407989      2.318079       0.0013888168   0.19174826     2.3180658      4.8475899    
    983500   4.9698163      2.4824233      0.0026405815   0.19593563     2.4824101      4.9565771    
    983600   4.8692867      2.4322087     -0.0057831068   0.18975894     2.4321953      4.9976435    
    983700   4.9824162      2.4887169      0.0072318128   0.19217517     2.488704       4.9841359    
    983800   5.0172674      2.5061251     -0.0039774999   0.19621799     2.5061112      5.1032288    
    983900   4.8961298      2.4456168     -0.0051925142   0.1888901      2.4456034      4.9891256    
    984000   4.9922758      2.4936418     -0.001909457    0.19613402     2.4936286      5.0228052    
    984100   4.9315871      2.4633278      0.020829843    0.19743286     2.4633149      4.9307034    
    984200   5.2106379      2.6027136     -0.0012500872   0.20647441     2.6027003      5.1688625    
    984300   5.1409325      2.5678958     -0.0066140822   0.20687684     2.5678822      5.0768459    
    984400   5.0783921      2.5366569     -0.0068405816   0.19804234     2.5366431      5.078384     
    984500   4.9506134      2.4728314     -2.8107039e-05  0.19067798     2.4728182      4.9361151    
    984600   5.0636268      2.5292816     -0.010049598    0.19892981     2.5292683      4.9875921    
    984700   4.9345671      2.4648162     -0.013651608    0.18721453     2.4648027      4.9804421    
    984800   5.0660482      2.5304911      0.0043904895   0.1988619      2.5304774      5.1200921    
    984900   5.0791563      2.5370386     -0.0060360771   0.19468799     2.5370253      4.9832578    
    985000   5.2147027      2.604744      -0.0017316978   0.20212934     2.6047306      5.0628578    
    985100   5.0855562      2.5402353     -0.012286875    0.19570027     2.5402216      5.1300781    
    985200   4.8221449      2.4086614      0.0076618607   0.18667288     2.4086478      4.9873048    
    985300   4.8931968      2.4441518      0.0081243964   0.1902634      2.4441382      4.982219     
    985400   5.0731854      2.5340561     -0.00764075     0.19571702     2.5340424      5.0948833    
    985500   5.0123933      2.5036904     -0.0025589866   0.19129476     2.503677       5.0344703    
    985600   5.2359785      2.6153713      0.0012688816   0.20778644     2.6153582      5.0223008    
    985700   4.9978928      2.4964475      0.001787418    0.20157377     2.496434       4.9896429    
    985800   4.8728174      2.4339723     -0.0023847799   0.18365667     2.4339593      4.8448029    
    985900   5.1985394      2.5966704     -0.0049609728   0.20330336     2.5966571      5.0634266    
    986000   5.0686466      2.531789       0.0048063878   0.19768223     2.5317755      5.0563898    
    986100   5.3674948      2.6810636      0.0080028764   0.21311414     2.6810499      5.2661357    
    986200   5.0261143      2.5105441     -0.00077610972  0.20055995     2.5105309      5.0027573    
    986300   4.801108       2.3981535     -0.017743532    0.18708979     2.3981405      4.8590897    
    986400   4.9887414      2.4918763      0.0030602945   0.19470508     2.4918627      5.0534954    
    986500   4.8029861      2.3990916     -0.0022203268   0.18274327     2.3990785      4.9309135    
    986600   4.7600508      2.3776454     -0.0054793408   0.18755614     2.3776324      4.8758233    
    986700   4.9129287      2.4540079     -0.015473669    0.18956297     2.4539951      4.8757399    
    986800   5.3606914      2.6776654      0.018003582    0.21560588     2.6776518      5.0943184    
    986900   5.1608473      2.5778432      0.0072929152   0.20583636     2.5778296      5.0435309    
    987000   5.2597871      2.6272636     -0.002670862    0.20511684     2.6272497      5.2218016    
    987100   5.0829101      2.5389136     -0.0088010158   0.19910134     2.5389         5.0748709    
    987200   4.9581957      2.4766188     -0.0010021479   0.1924342      2.4766051      5.063903     
    987300   4.9397351      2.4673977     -0.010931245    0.19206921     2.4673845      4.8969412    
    987400   5.0330611      2.514014      -0.012183266    0.19424028     2.5140007      5.037047     
    987500   4.9382636      2.4666627      0.011695418    0.19671921     2.4666497      4.9344556    
    987600   5.2418597      2.6183089      0.014776823    0.21255602     2.6182952      5.1723084    
    987700   4.9872728      2.4911427      0.0072217592   0.197927       2.4911293      4.9869701    
    987800   4.9714109      2.4832198      0.0111415      0.20078903     2.4832064      5.0568637    
    987900   4.9845827      2.4897991      0.0038150958   0.1950613      2.4897858      4.9423698    
    988000   5.2149067      2.6048459      0.0053420179   0.20422096     2.6048325      5.0822797    
    988100   4.8703958      2.4327627      0.0062915843   0.19692285     2.4327491      4.9963407    
    988200   5.1939148      2.5943605     -0.017692849    0.20002942     2.5943467      5.1397781    
    988300   4.9068556      2.4509744      0.0035042712   0.19476924     2.450961       5.0114659    
    988400   4.8921974      2.4436526     -0.0042736516   0.18794936     2.4436393      5.0107317    
    988500   4.8377688      2.4164655     -0.022919326    0.18447436     2.4164522      4.9968276    
    988600   4.7014771      2.3483878      0.011633253    0.18556752     2.3483746      4.9077166    
    988700   5.0849615      2.5399383     -0.0074933411   0.19465625     2.5399247      5.0671647    
    988800   5.1289822      2.5619266      0.0085029769   0.20492885     2.5619133      5.0228717    
    988900   4.8384056      2.4167836     -0.0029732319   0.18802301     2.4167705      4.9362123    
    989000   4.7843643      2.38979       -0.00025849448  0.18839327     2.3897768      4.8839614    
    989100   5.1084233      2.5516574      0.0034701385   0.1993625      2.5516438      5.1154342    
    989200   4.9029747      2.4490359      0.0059442879   0.19451858     2.4490226      4.945262     
    989300   5.2694119      2.6320713     -0.0044692645   0.21093906     2.632058       5.0858089    
    989400   5.1042816      2.5495887     -0.0040889693   0.19902536     2.5495752      5.0502335    
    989500   4.957712       2.4763771      0.0070982496   0.19484755     2.4763637      5.0126286    
    989600   4.8842394      2.4396776     -0.010672525    0.18793401     2.4396649      4.8661757    
    989700   4.8624871      2.4288123     -0.015261374    0.177689       2.4287991      4.8556386    
    989800   5.04745        2.5212013      0.012895489    0.20784329     2.521188       4.9489608    
    989900   5.158887       2.5768641      0.0069433966   0.20387395     2.5768509      5.0112634    
    990000   4.8033454      2.399271      -0.0047590263   0.18786089     2.3992576      4.9283841    
    990100   5.0119423      2.5034652      0.008566458    0.19550093     2.5034517      5.0624262    
    990200   4.9547302      2.4748877      0.0034458944   0.19714144     2.4748746      4.9266535    
    990300   4.9570109      2.476027       0.012581152    0.20455836     2.4760138      4.9611055    
    990400   5.1614581      2.5781483     -0.012240562    0.20623867     2.5781346      5.0560945    
    990500   4.6552486      2.3252967     -0.018506291    0.17691309     2.3252834      4.8498458    
    990600   4.9418714      2.4684647     -0.016908022    0.19394165     2.4684514      4.9600411    
    990700   4.6917516      2.3435299      0.0015388416   0.18316801     2.3435168      4.8829135    
    990800   5.090725       2.5428171      0.0056918651   0.20213923     2.5428043      4.9079678    
    990900   5.129772       2.5623211     -0.0018806235   0.19475365     2.5623076      5.0576271    
    991000   4.8671342      2.4311336     -0.0024263978   0.18948528     2.4311202      4.9210016    
    991100   5.0951412      2.545023      -0.003611265    0.20617532     2.5450096      5.1120147    
    991200   4.9800775      2.4875487     -0.0091963153   0.19215007     2.4875355      4.9848573    
    991300   5.0792598      2.5370903     -0.0062358093   0.19404811     2.5370767      5.1193114    
    991400   4.9135303      2.4543084     -0.0056894565   0.19692971     2.4542951      4.9924081    
    991500   4.7155097      2.3553971      0.0035478035   0.19018403     2.3553842      4.8331988    
    991600   5.0615876      2.528263       0.0039326437   0.19744824     2.5282492      5.1466882    
    991700   4.9743111      2.4846684     -0.015241986    0.19633477     2.4846554      4.9496182    
    991800   5.0668391      2.5308861      0.01067702     0.20491532     2.5308731      4.8854844    
    991900   4.7479283      2.3715902      0.0014619284   0.18536018     2.371577       4.9009006    
    992000   4.7107847      2.353037      -0.0058506691   0.18548167     2.353024       4.8304011    
    992100   4.8991489      2.4471249     -0.01600447     0.18482763     2.447112       4.9282449    
    992200   4.7474157      2.3713341     -0.0057848491   0.18751867     2.3713212      4.8074384    
    992300   4.8516392      2.4233938     -0.0058410415   0.18819958     2.4233807      4.9835501    
    992400   4.9854142      2.4902144     -0.010706194    0.199328       2.4902015      4.8786446    
    992500   4.9527643      2.4739058     -0.0043997328   0.19417064     2.4738925      5.0007639    
    992600   5.0295995      2.5122849     -0.0045415429   0.19529683     2.5122716      5.0011251    
    992700   4.9955204      2.4952624      0.00087670853  0.19139415     2.495249       5.0556388    
    992800   4.7915157      2.3933621      0.0037860415   0.19014401     2.3933491      4.9338614    
    992900   5.2684477      2.6315896      0.011204023    0.21056819     2.631576       5.097096     
    993000   4.9359693      2.4655166      0.011118524    0.19712544     2.4655033      5.056611     
    993100   5.0783094      2.5366156     -0.0077483667   0.19301049     2.5366021      5.0754578    
    993200   4.9528358      2.4739415      0.00031599031  0.19659748     2.4739287      4.8702243    
    993300   4.814206       2.4046959     -0.010627338    0.18249052     2.404683       4.8963377    
    993400   5.186689       2.5907512     -0.018908577    0.19975532     2.5907373      5.1877297    
    993500   4.7660272      2.3806306      0.0073689997   0.19049972     2.3806177      4.9090339    
    993600   5.0919686      2.5434383      0.00079507077  0.19819555     2.5434247      5.0875468    
    993700   4.9262615      2.4606676     -0.0049215407   0.19571978     2.4606549      4.8938682    
    993800   4.8516167      2.4233826      0.0042791076   0.19687241     2.4233694      4.9753162    
    993900   5.1545278      2.5746866     -0.00050697862  0.19748186     2.5746732      5.0759651    
    994000   4.8541699      2.4246579     -0.0050811469   0.18282417     2.4246449      4.9307453    
    994100   5.0770087      2.5359658      0.0002744469   0.20079373     2.5359523      5.0653155    
    994200   4.990745       2.4928771      0.0078186307   0.19649122     2.4928636      4.9979434    
    994300   4.9015187      2.4483086     -0.010768943    0.19983719     2.4482953      4.952017     
    994400   4.7234858      2.3593812     -0.012813433    0.1825721      2.3593679      4.8695091    
    994500   4.9858265      2.4904204     -0.0057334518   0.19355634     2.4904072      4.9765884    
    994600   4.8780636      2.4365928     -0.0061130251   0.1858307      2.4365793      4.9740031    
    994700   5.1006064      2.5477529      0.0054508239   0.20525619     2.5477392      5.1002207    
    994800   4.951277       2.4731629      0.013453606    0.19595192     2.4731496      4.9219131    
    994900   5.0278603      2.5114162      0.0038268396   0.20099626     2.5114029      5.0030912    
    995000   4.9490411      2.4720461      0.010761605    0.20239681     2.4720333      4.955457     
    995100   5.2172256      2.6060042      0.005652114    0.20761016     2.6059907      5.0470645    
    995200   4.9884238      2.4917177     -0.0076571024   0.19133816     2.4917041      5.0830997    
    995300   4.7673943      2.3813135     -0.0030203508   0.18763669     2.3813006      4.8329879    
    995400   5.0223771      2.5086774     -0.0094500963   0.18945154     2.5086641      5.0414376    
    995500   5.0475445      2.5212485      0.0021897822   0.2012991      2.5212346      5.1050307    
    995600   5.055913       2.5254286     -0.0070764665   0.19339501     2.5254153      4.9707465    
    995700   4.8767422      2.4359327     -0.030098468    0.18630801     2.4359194      4.9086768    
    995800   4.777957       2.3865895     -0.0010001475   0.19789535     2.3865763      4.8813507    
    995900   4.8958891      2.4454966     -0.010123292    0.1923805      2.445483       4.9443649    
    996000   4.9697723      2.4824012     -0.011547168    0.19452021     2.4823884      4.8177122    
    996100   5.1608625      2.5778508     -0.014945566    0.19709314     2.5778377      4.9756213    
    996200   4.8930808      2.4440939      0.00063365084  0.1972777      2.4440808      4.8599143    
    996300   4.8668065      2.4309698     -0.0016058045   0.18221674     2.4309568      4.8431756    
    996400   4.786289       2.3907513     -0.0047422221   0.18915527     2.3907381      4.9248497    
    996500   5.0728478      2.5338875     -0.0035348809   0.19549868     2.5338743      5.0680307    
    996600   5.039936       2.517448      -0.011203061    0.19967993     2.5174352      4.9286872    
    996700   5.2374358      2.6160992     -0.022522953    0.20150428     2.6160857      5.0921462    
    996800   4.8936362      2.4443713      0.0045953603   0.19469809     2.4443583      4.8551724    
    996900   4.9618172      2.4784277      0.0073997816   0.20009486     2.4784145      4.9878911    
    997000   5.0161842      2.505584       0.0050615978   0.2025689      2.5055708      5.0639921    
    997100   5.2864672      2.6405904     -0.00083425543  0.20213699     2.640577       5.1311034    
    997200   4.9228821      2.4589796      0.00014162491  0.1949002      2.4589661      5.0330241    
    997300   4.8807677      2.4379435     -0.00095399667  0.18226706     2.4379306      4.8646164    
    997400   4.8707873      2.4329583     -0.0074877685   0.18471542     2.4329447      5.0113205    
    997500   5.2692076      2.6319692      0.0047030965   0.21048904     2.6319554      5.1488674    
    997600   5.0418364      2.5183973      0.001203916    0.19870941     2.5183839      4.9946433    
    997700   5.0919758      2.5434419     -0.010989788    0.19653718     2.5434284      5.0321678    
    997800   4.907619       2.4513557      0.00091879926  0.20353117     2.4513424      4.966336     
    997900   5.1060203      2.5504571      0.0025582061   0.19553881     2.5504431      5.2005915    
    998000   5.0873705      2.5411415     -0.0088052295   0.19822536     2.5411282      5.0462914    
    998100   5.2826827      2.6387         0.0062477839   0.20756351     2.6386871      5.0203512    
    998200   5.063639       2.5292877      0.0086464977   0.20558058     2.5292744      5.011294     
    998300   5.0502308      2.5225903      0.010548861    0.20661428     2.5225775      4.9197644    
    998400   4.9255424      2.4603084     -0.0032332915   0.19418804     2.4602951      4.9528897    
    998500   5.2054619      2.6001282     -0.012641452    0.2062689      2.6001149      5.0930424    
    998600   4.9043309      2.4497133      0.0021355758   0.196779       2.4497002      4.8684971    
    998700   4.7513552      2.3733019     -0.0027731056   0.18911116     2.3732885      4.9649012    
    998800   5.1877026      2.5912575      0.00036527593  0.20556019     2.5912442      5.0121893    
    998900   4.9717772      2.4834027     -0.0045966356   0.19298002     2.4833893      5.0211144    
    999000   5.1593344      2.5770875     -0.0068035445   0.20086074     2.577074       5.0996434    
    999100   4.8775865      2.4363544     -0.0028019233   0.18949401     2.4363416      4.8982144    
    999200   4.9225963      2.4588368      0.0082178264   0.20965636     2.4588236      4.9209587    
    999300   5.1267386      2.5608059     -0.0037709688   0.20153619     2.5607922      5.0888019    
    999400   5.0481807      2.5215662     -0.014174991    0.18948667     2.5215528      5.0876209    
    999500   5.0663413      2.5306375      0.0053165237   0.20290467     2.5306237      5.0675026    
    999600   4.7818436      2.3885309     -0.00042658731  0.18452434     2.3885176      4.9035599    
    999700   5.0767491      2.5358362      0.0089060299   0.20290747     2.5358226      5.0808625    
    999800   4.8903087      2.4427092     -0.0088292985   0.19105705     2.4426957      4.9545419    
    999900   5.027059       2.511016      -0.0080841591   0.18872531     2.5110027      4.9649916    
   1000000   5.0202435      2.5076116      0.0037025838   0.19829261     2.5075982      4.9784724    
Loop time of 1045.27 on 1 procs for 1000000 steps with 3000 atoms

Performance: 413289.852 tau/day, 956.689 timesteps/s, 2.870 Matom-step/s
99.8% CPU use with 1 MPI tasks x 1 OpenMP threads

MPI task timing breakdown:
Section |  min time  |  avg time  |  max time  |%varavg| %total
---------------------------------------------------------------
Pair    | 12.219     | 12.219     | 12.219     |   0.0 |  1.17
Bond    | 0.035393   | 0.035393   | 0.035393   |   0.0 |  0.00
Neigh   | 541.95     | 541.95     | 541.95     |   0.0 | 51.85
Comm    | 64.5       | 64.5       | 64.5       |   0.0 |  6.17
Output  | 0.69       | 0.69       | 0.69       |   0.0 |  0.07
Modify  | 401.38     | 401.38     | 401.38     |   0.0 | 38.40
Other   |            | 24.49      |            |       |  2.34

Nlocal:           3000 ave        3000 max        3000 min
Histogram: 1 0 0 0 0 0 0 0 0 0
Nghost:            831 ave         831 max         831 min
Histogram: 1 0 0 0 0 0 0 0 0 0
Neighs:              0 ave           0 max           0 min
Histogram: 1 0 0 0 0 0 0 0 0 0

Total # of neighbors = 0
Ave neighs/atom = 0
Ave special neighs/atom = 0
Neighbor list builds = 1000000
Dangerous builds not checked

Total wall time: 0:17:25
