LAMMPS (10 Sep 2025 - Development - patch_10Sep2025-660-g792d014343)
OMP_NUM_THREADS environment is not set. Defaulting to 1 thread.
  using 1 OpenMP thread(s) per MPI task
# Defining the essential variables

units lj
dimension 3
atom_style atomic
boundary p p p




# Creating  a large box

region my_box block 0 30 0 30 0 30
create_box 1 my_box
Created orthogonal box = (0 0 0) to (30 30 30)
  1 by 1 by 1 MPI processor grid





# Filling up the box with the particles

create_atoms 1 random 5000 87910 my_box
Created 5000 atoms
  using lattice units in orthogonal box = (0 0 0) to (30 30 30)
  create_atoms CPU = 0.000 seconds




# Defining the particle's properties and switching off the interaction

mass 1 1.0

pair_style lj/cut 2.5
pair_style none




# Creating initial velocity distribution for a given temperature

velocity all create 1.0 12345 mom yes rot no  # Assign initial velocities




# Setting up Brownian dynamics through the Langevin thermostat at a particular temperature

fix my_thermo_stat all langevin 1  1  1 89080




# Applying an integrator to update the position and the velocity

fix integrator all nve




# Setting up time achieved by each simulation step

timestep 0.005




# Specifying the parameters to print on the terminal

thermo 100
thermo_style custom step temp ke pe press






# Apply another compute to calculate the mean squared displacement

compute msd_all all msd
fix msd_output all ave/time 100 1 100 c_msd_all file msd.dat mode vector





# Running the simulation

run 40000
WARNING: No pairwise cutoff or binsize set. Atom sorting therefore disabled. (src/atom.cpp:2486)
WARNING: Communication cutoff is 0.0. No ghost atoms will be generated. Energies and forces may be wrong and atoms may get lost. (src/comm_brick.cpp:188)
Per MPI rank memory allocation (min/avg/max) = 2.672 | 2.672 | 2.672 Mbytes
   Step          Temp          KinEng         PotEng         Press     
         0   1              1.4997         0              0.18514815   
       100   1.0258953      1.5385351      0              0.18994261   
       200   0.99696674     1.495151       0              0.18458655   
       300   1.0011287      1.5013927      0              0.18535712   
       400   0.98517105     1.477461       0              0.1824026    
       500   1.0023521      1.5032274      0              0.18558363   
       600   1.0047677      1.5068501      0              0.18603087   
       700   1.0053147      1.5076705      0              0.18613216   
       800   0.99694223     1.4951143      0              0.18458201   
       900   0.98210638     1.4728649      0              0.18183518   
      1000   1.015448       1.5228674      0              0.18800832   
      1100   1.0093781      1.5137643      0              0.18688448   
      1200   1.0290766      1.5433062      0              0.19053163   
      1300   1.013974       1.5206568      0              0.18773541   
      1400   1.0232596      1.5345824      0              0.18945462   
      1500   0.9980145      1.4967223      0              0.18478054   
      1600   0.98386076     1.475496       0              0.18216      
      1700   0.97598361     1.4636826      0              0.18070156   
      1800   0.99164786     1.4871743      0              0.18360176   
      1900   0.97937884     1.4687744      0              0.18133018   
      2000   0.98732249     1.4806875      0              0.18280093   
      2100   1.0142932      1.5211356      0              0.18779452   
      2200   1.0009334      1.5010998      0              0.18532096   
      2300   0.9957269      1.4932916      0              0.18435699   
      2400   1.0000915      1.4998372      0              0.18516508   
      2500   1.008337       1.512203       0              0.18669172   
      2600   0.99337043     1.4897576      0              0.1839207    
      2700   0.99420483     1.491009       0              0.18407518   
      2800   0.98724896     1.4805773      0              0.18278732   
      2900   1.0118554      1.5174795      0              0.18734315   
      3000   1.0104828      1.5154211      0              0.18708902   
      3100   1.0107048      1.5157541      0              0.18713013   
      3200   1.0175463      1.5260142      0              0.18839681   
      3300   0.99307559     1.4893155      0              0.18386611   
      3400   0.98262197     1.4736382      0              0.18193064   
      3500   1.0043202      1.506179       0              0.18594803   
      3600   1.0342101      1.5510049      0              0.19148209   
      3700   1.011658       1.5171835      0              0.1873066    
      3800   1.0037757      1.5053625      0              0.18584722   
      3900   1.0092751      1.5136099      0              0.18686542   
      4000   0.98648114     1.4794258      0              0.18264516   
      4100   0.97428245     1.4611314      0              0.18038659   
      4200   0.97938085     1.4687775      0              0.18133055   
      4300   0.98084089     1.4709671      0              0.18160087   
      4400   0.97112837     1.4564012      0              0.17980262   
      4500   0.97733744     1.465713       0              0.18095222   
      4600   0.98038391     1.4702817      0              0.18151627   
      4700   0.97908804     1.4683383      0              0.18127634   
      4800   0.99729827     1.4956482      0              0.18464793   
      4900   0.99840863     1.4973134      0              0.18485351   
      5000   1.0123981      1.5182934      0              0.18744363   
      5100   1.0094717      1.5139047      0              0.18690182   
      5200   0.99694512     1.4951186      0              0.18458254   
      5300   1.0031303      1.5043945      0              0.18572772   
      5400   1.0105995      1.5155961      0              0.18711063   
      5500   1.0181852      1.5269723      0              0.1885151    
      5600   0.99099762     1.4861991      0              0.18348137   
      5700   0.99074702     1.4858233      0              0.18343498   
      5800   0.98769768     1.4812502      0              0.1828704    
      5900   0.99143833     1.4868601      0              0.18356297   
      6000   0.9973948      1.495793       0              0.1846658    
      6100   0.99971919     1.4992789      0              0.18509616   
      6200   0.9909736      1.4861631      0              0.18347693   
      6300   0.98930568     1.4836617      0              0.18316812   
      6400   1.0142352      1.5210485      0              0.18778376   
      6500   1.0083747      1.5122596      0              0.18669871   
      6600   1.0040188      1.505727       0              0.18589222   
      6700   0.98888296     1.4830278      0              0.18308985   
      6800   0.98925081     1.4835794      0              0.18315796   
      6900   0.98533302     1.4777039      0              0.18243258   
      7000   0.99417943     1.4909709      0              0.18407048   
      7100   1.0028751      1.5040118      0              0.18568047   
      7200   1.0005031      1.5004544      0              0.18524129   
      7300   1.0031009      1.5043504      0              0.18572227   
      7400   0.98425618     1.476089       0              0.18223321   
      7500   0.99230056     1.4881532      0              0.18372261   
      7600   1.0012628      1.5015939      0              0.18538196   
      7700   1.0191028      1.5283485      0              0.188685     
      7800   1.0027276      1.5037906      0              0.18565316   
      7900   1.0050754      1.5073115      0              0.18608784   
      8000   1.0071617      1.5104404      0              0.18647412   
      8100   1.0275027      1.5409458      0              0.19024023   
      8200   1.0203104      1.5301596      0              0.18890859   
      8300   1.0103197      1.5151764      0              0.18705881   
      8400   1.0136683      1.5201983      0              0.18767881   
      8500   1.00862        1.5126274      0              0.18674412   
      8600   1.0262663      1.5390916      0              0.19001131   
      8700   1.0301939      1.5449817      0              0.19073849   
      8800   1.0106813      1.5157187      0              0.18712577   
      8900   1.0187026      1.5277483      0              0.1886109    
      9000   1.0243237      1.5361782      0              0.18965163   
      9100   1.0131726      1.519455       0              0.18758703   
      9200   1.0291806      1.5434621      0              0.19055088   
      9300   1.0173188      1.5256731      0              0.1883547    
      9400   1.0135992      1.5200947      0              0.18766601   
      9500   0.98281731     1.4739311      0              0.1819668    
      9600   0.99959059     1.499086       0              0.18507235   
      9700   1.006411       1.5093146      0              0.18633513   
      9800   0.99941018     1.4988155      0              0.18503894   
      9900   0.99111771     1.4863792      0              0.18350361   
     10000   0.99379574     1.4903955      0              0.18399944   
     10100   1.0112475      1.5165679      0              0.1872306    
     10200   1.012902       1.5190491      0              0.18753693   
     10300   1.0106946      1.5157387      0              0.18712824   
     10400   1.0222921      1.5331314      0              0.18927548   
     10500   1.017356       1.5257288      0              0.18836158   
     10600   1.0297844      1.5443676      0              0.19066267   
     10700   1.0144221      1.5213288      0              0.18781838   
     10800   1.015606       1.5231043      0              0.18803756   
     10900   1.0157565      1.5233301      0              0.18806544   
     11000   1.0074295      1.5108421      0              0.18652372   
     11100   1.0138404      1.5204565      0              0.18771068   
     11200   1.0285208      1.5424727      0              0.19042873   
     11300   1.0021033      1.5028544      0              0.18553758   
     11400   0.9920947      1.4878444      0              0.1836845    
     11500   0.99908894     1.4983337      0              0.18497947   
     11600   0.99876792     1.4978523      0              0.18492003   
     11700   1.0053801      1.5077686      0              0.18614427   
     11800   0.99838993     1.4972854      0              0.18485005   
     11900   0.98795729     1.4816396      0              0.18291846   
     12000   0.99150337     1.4869576      0              0.18357501   
     12100   0.98375106     1.4753315      0              0.18213969   
     12200   0.98839437     1.482295       0              0.18299939   
     12300   0.98952789     1.483995       0              0.18320926   
     12400   1.005811       1.5084148      0              0.18622404   
     12500   0.98393102     1.4756014      0              0.18217301   
     12600   0.9887139      1.4827742      0              0.18305855   
     12700   0.99842147     1.4973327      0              0.18485589   
     12800   1.0096222      1.5141304      0              0.18692967   
     12900   1.0040026      1.5057028      0              0.18588923   
     13000   1.0077216      1.5112801      0              0.18657779   
     13100   1.0063834      1.5092732      0              0.18633003   
     13200   1.0011442      1.5014159      0              0.18535999   
     13300   1.0012343      1.501551       0              0.18537667   
     13400   0.98757318     1.4810635      0              0.18284735   
     13500   1.0204662      1.5303932      0              0.18893744   
     13600   0.97958155     1.4690785      0              0.18136771   
     13700   0.99896671     1.4981504      0              0.18495684   
     13800   1.0026941      1.5037404      0              0.18564696   
     13900   1.0025187      1.5034773      0              0.18561448   
     14000   0.98744372     1.4808693      0              0.18282338   
     14100   1.0124365      1.518351       0              0.18745074   
     14200   0.9974534      1.4958809      0              0.18467665   
     14300   0.99756598     1.4960497      0              0.18469749   
     14400   0.99191253     1.4875712      0              0.18365077   
     14500   0.98837337     1.4822635      0              0.1829955    
     14600   0.98067401     1.4707168      0              0.18156998   
     14700   0.97919388     1.4684971      0              0.18129593   
     14800   1.0044166      1.5063235      0              0.18596587   
     14900   1.0001162      1.4998743      0              0.18516966   
     15000   1.0285767      1.5425564      0              0.19043907   
     15100   1.0110073      1.5162076      0              0.18718613   
     15200   1.0114636      1.516892       0              0.18727061   
     15300   1.0113039      1.5166524      0              0.18724104   
     15400   0.98748091     1.4809251      0              0.18283026   
     15500   0.99852849     1.4974932      0              0.1848757    
     15600   1.0051067      1.5073585      0              0.18609364   
     15700   1.0039759      1.5056627      0              0.18588428   
     15800   0.9956015      1.4931036      0              0.18433377   
     15900   0.98851869     1.4824815      0              0.18302241   
     16000   0.98436775     1.4762563      0              0.18225387   
     16100   0.99033589     1.4852067      0              0.18335886   
     16200   1.0015629      1.5020438      0              0.18543751   
     16300   0.99565227     1.4931797      0              0.18434317   
     16400   0.99175101     1.487329       0              0.18362086   
     16500   0.98303145     1.4742523      0              0.18200645   
     16600   0.98955737     1.4840392      0              0.18321471   
     16700   0.99532032     1.4926819      0              0.18428171   
     16800   0.99006932     1.484807       0              0.1833095    
     16900   0.99428217     1.491125       0              0.1840895    
     17000   0.98803735     1.4817596      0              0.18293329   
     17100   0.99840166     1.497303       0              0.18485222   
     17200   0.99982157     1.4994324      0              0.18511511   
     17300   1.0282594      1.5420807      0              0.19038033   
     17400   1.0160557      1.5237787      0              0.18812083   
     17500   0.999664       1.4991961      0              0.18508594   
     17600   1.0040696      1.5058032      0              0.18590163   
     17700   1.0201266      1.5298839      0              0.18887456   
     17800   1.0034663      1.5048985      0              0.18578993   
     17900   0.99224844     1.488075       0              0.18371296   
     18000   0.98165351     1.4721858      0              0.18175133   
     18100   0.97463037     1.4616532      0              0.18045101   
     18200   0.97306493     1.4593055      0              0.18016117   
     18300   0.9842559      1.4760886      0              0.18223316   
     18400   0.97757945     1.4660759      0              0.18099702   
     18500   0.99519653     1.4924962      0              0.18425879   
     18600   0.98284362     1.4739706      0              0.18197168   
     18700   0.99808299     1.4968251      0              0.18479322   
     18800   0.99757549     1.496064       0              0.18469925   
     18900   0.97662611     1.4646462      0              0.18082052   
     19000   1.0105512      1.5155236      0              0.18710168   
     19100   1.0258412      1.5384541      0              0.18993261   
     19200   1.0215362      1.5319978      0              0.18913554   
     19300   0.9871058      1.4803626      0              0.18276081   
     19400   0.99007823     1.4848203      0              0.18331115   
     19500   1.0002521      1.5000781      0              0.18519482   
     19600   1.010123       1.5148815      0              0.18702241   
     19700   1.012853       1.5189757      0              0.18752786   
     19800   1.0008351      1.5009523      0              0.18530276   
     19900   0.99823774     1.4970571      0              0.18482187   
     20000   0.99604516     1.4937689      0              0.18441592   
     20100   1.0026589      1.5036875      0              0.18564043   
     20200   1.0132341      1.5195471      0              0.18759841   
     20300   1.0220047      1.5327004      0              0.18922227   
     20400   1.011657       1.517182       0              0.18730642   
     20500   1.0102647      1.515094       0              0.18704864   
     20600   1.0036098      1.5051135      0              0.18581649   
     20700   0.99205673     1.4877875      0              0.18367747   
     20800   0.98716503     1.4804514      0              0.18277178   
     20900   0.96485095     1.446987       0              0.17864037   
     21000   0.98445061     1.4763806      0              0.18226921   
     21100   0.99505519     1.4922843      0              0.18423263   
     21200   0.99680007     1.4949011      0              0.18455569   
     21300   1.0028035      1.5039044      0              0.18566721   
     21400   0.99407226     1.4908102      0              0.18405064   
     21500   0.98748458     1.4809306      0              0.18283094   
     21600   0.99958166     1.4990726      0              0.18507069   
     21700   0.99820011     1.4970007      0              0.1848149    
     21800   1.0058532      1.5084781      0              0.18623186   
     21900   1.0011208      1.5013809      0              0.18535566   
     22000   1.0070295      1.5102421      0              0.18644964   
     22100   1.0027469      1.5038195      0              0.18565672   
     22200   0.9908534      1.4859828      0              0.18345467   
     22300   0.98009073     1.4698421      0              0.18146198   
     22400   0.9986754      1.4977135      0              0.1849029    
     22500   0.98115548     1.4714389      0              0.18165912   
     22600   0.99806914     1.4968043      0              0.18479065   
     22700   1.0024738      1.5034099      0              0.18560616   
     22800   1.0021257      1.502888       0              0.18554172   
     22900   0.99719588     1.4954947      0              0.18462897   
     23000   0.98876755     1.4828547      0              0.18306848   
     23100   0.9915719      1.4870604      0              0.1835877    
     23200   0.98820461     1.4820105      0              0.18296425   
     23300   0.99717825     1.4954682      0              0.18462571   
     23400   0.99954178     1.4990128      0              0.18506331   
     23500   0.99893327     1.4981002      0              0.18495065   
     23600   0.98908569     1.4833318      0              0.18312738   
     23700   1.0008252      1.5009375      0              0.18530093   
     23800   0.99841759     1.4973269      0              0.18485517   
     23900   0.99874115     1.4978121      0              0.18491507   
     24000   1.0155522      1.5230237      0              0.18802762   
     24100   1.0046543      1.50668        0              0.18600988   
     24200   1.0021158      1.5028731      0              0.18553989   
     24300   1.0189036      1.5280498      0              0.18864812   
     24400   1.001403       1.501804       0              0.1854079    
     24500   1.0052316      1.5075458      0              0.18611676   
     24600   0.99925331     1.4985802      0              0.1850099    
     24700   1.0084501      1.5123726      0              0.18671266   
     24800   1.0051754      1.5074615      0              0.18610636   
     24900   1.0125742      1.5185575      0              0.18747623   
     25000   1.0184526      1.5273734      0              0.18856461   
     25100   1.0085695      1.5125516      0              0.18673477   
     25200   0.98237472     1.4732674      0              0.18188486   
     25300   0.98734768     1.4807253      0              0.1828056    
     25400   0.99257885     1.4885705      0              0.18377414   
     25500   0.98977235     1.4843616      0              0.18325452   
     25600   0.99675125     1.4948278      0              0.18454665   
     25700   0.9785582      1.4675437      0              0.18117824   
     25800   0.98250741     1.4734664      0              0.18190943   
     25900   0.98223058     1.4730512      0              0.18185817   
     26000   0.99085509     1.4859854      0              0.18345499   
     26100   0.97830908     1.4671701      0              0.18113211   
     26200   0.98454734     1.4765256      0              0.18228712   
     26300   0.99458589     1.4915805      0              0.18414574   
     26400   1.0121414      1.5179085      0              0.18739612   
     26500   1.006741       1.5098094      0              0.18639623   
     26600   1.0108469      1.5159671      0              0.18715643   
     26700   1.0032609      1.5045903      0              0.18575189   
     26800   0.97692975     1.4651015      0              0.18087673   
     26900   0.99754559     1.4960191      0              0.18469372   
     27000   1.0012309      1.5015459      0              0.18537604   
     27100   1.0280063      1.541701       0              0.19033346   
     27200   1.0078158      1.5114213      0              0.18659522   
     27300   1.0096778      1.5142138      0              0.18693997   
     27400   0.99586378     1.4934969      0              0.18438233   
     27500   1.0122902      1.5181316      0              0.18742366   
     27600   0.99788296     1.4965251      0              0.18475618   
     27700   0.99645103     1.4943776      0              0.18449106   
     27800   1.0025977      1.5035958      0              0.18562911   
     27900   0.99265646     1.4886869      0              0.18378851   
     28000   1.0027547      1.5038312      0              0.18565817   
     28100   1.0030743      1.5043105      0              0.18571735   
     28200   1.0100105      1.5147128      0              0.18700158   
     28300   1.0027161      1.5037733      0              0.18565103   
     28400   1.0019182      1.5025767      0              0.18550329   
     28500   0.99783589     1.4964545      0              0.18474747   
     28600   1.0017288      1.5022926      0              0.18546822   
     28700   0.99996814     1.4996522      0              0.18514225   
     28800   0.98681291     1.4799233      0              0.18270658   
     28900   0.9965268      1.4944912      0              0.18450509   
     29000   1.0040391      1.5057575      0              0.18589598   
     29100   1.0085683      1.5125499      0              0.18673456   
     29200   1.0006476      1.5006712      0              0.18526805   
     29300   0.98188699     1.4725359      0              0.18179456   
     29400   1.0102245      1.5150337      0              0.1870412    
     29500   0.99442117     1.4913334      0              0.18411524   
     29600   1.0093205      1.5136779      0              0.18687382   
     29700   1.0099888      1.5146802      0              0.18699756   
     29800   0.98822127     1.4820354      0              0.18296734   
     29900   1.006964       1.5101439      0              0.18643751   
     30000   0.99009004     1.484838       0              0.18331334   
     30100   0.98044536     1.4703739      0              0.18152764   
     30200   0.99223341     1.4880524      0              0.18371018   
     30300   0.98341843     1.4748326      0              0.1820781    
     30400   1.0125239      1.5184821      0              0.18746693   
     30500   1.0142966      1.5211407      0              0.18779514   
     30600   1.0036006      1.5050998      0              0.1858148    
     30700   0.99775748     1.4963369      0              0.18473295   
     30800   1.0063887      1.5092812      0              0.18633101   
     30900   0.99953954     1.4990094      0              0.18506289   
     31000   0.98863352     1.4826537      0              0.18304367   
     31100   1.0060802      1.5088185      0              0.18627389   
     31200   0.98803994     1.4817635      0              0.18293377   
     31300   0.98931029     1.4836686      0              0.18316897   
     31400   0.9955602      1.4930416      0              0.18432613   
     31500   0.98929831     1.4836507      0              0.18316675   
     31600   1.0094236      1.5138326      0              0.18689291   
     31700   0.99452352     1.4914869      0              0.18413419   
     31800   1.0029827      1.5041731      0              0.18570039   
     31900   1.018618       1.5276215      0              0.18859524   
     32000   1.0105047      1.5154539      0              0.18709307   
     32100   0.98405572     1.4757884      0              0.1821961    
     32200   0.99308352     1.4893274      0              0.18386757   
     32300   1.0019754      1.5026625      0              0.18551389   
     32400   0.99874471     1.4978174      0              0.18491573   
     32500   0.99947235     1.4989087      0              0.18505045   
     32600   1.0171484      1.5254174      0              0.18832314   
     32700   1.0081238      1.5118832      0              0.18665225   
     32800   0.99690617     1.4950602      0              0.18457533   
     32900   1.0062967      1.5091431      0              0.18631396   
     33000   0.98893593     1.4831072      0              0.18309966   
     33100   0.9936757      1.4902154      0              0.18397722   
     33200   1.000651       1.5006764      0              0.18526869   
     33300   0.99370918     1.4902657      0              0.18398341   
     33400   1.0026728      1.5037084      0              0.18564301   
     33500   0.99706742     1.495302       0              0.18460519   
     33600   1.0117247      1.5172835      0              0.18731896   
     33700   1.0042644      1.5060954      0              0.1859377    
     33800   1.0030958      1.5043428      0              0.18572133   
     33900   1.0196197      1.5291236      0              0.18878069   
     34000   1.0115113      1.5169635      0              0.18727945   
     34100   1.0205016      1.5304463      0              0.18894399   
     34200   1.001774       1.5023605      0              0.18547661   
     34300   1.0045399      1.5065084      0              0.18598869   
     34400   1.0015767      1.5020646      0              0.18544008   
     34500   0.98620825     1.4790165      0              0.18259463   
     34600   0.9868799      1.4800238      0              0.18271899   
     34700   0.994443       1.4913662      0              0.18411928   
     34800   0.994551       1.4915281      0              0.18413928   
     34900   0.98390584     1.4755636      0              0.18216834   
     35000   0.98907491     1.4833156      0              0.18312539   
     35100   0.99462974     1.4916462      0              0.18415386   
     35200   1.0067946      1.5098898      0              0.18640615   
     35300   1.002103       1.5028539      0              0.18553752   
     35400   0.99236206     1.4882454      0              0.183734     
     35500   1.0113303      1.5166921      0              0.18724594   
     35600   0.99996897     1.4996535      0              0.1851424    
     35700   1.0096621      1.5141902      0              0.18693707   
     35800   0.99968955     1.4992344      0              0.18509067   
     35900   1.0098287      1.5144401      0              0.18696791   
     36000   1.0016042      1.5021059      0              0.18544517   
     36100   0.99731022     1.4956661      0              0.18465014   
     36200   1.0065084      1.5094607      0              0.18635317   
     36300   1.021311       1.5316601      0              0.18909384   
     36400   1.0123849      1.5182736      0              0.18744119   
     36500   0.98676954     1.4798583      0              0.18269855   
     36600   1.005592       1.5080863      0              0.18618349   
     36700   1.006485       1.5094255      0              0.18634883   
     36800   1.0166447      1.5246621      0              0.18822989   
     36900   1.0081466      1.5119175      0              0.18665648   
     37000   0.99997042     1.4996556      0              0.18514267   
     37100   0.98144275     1.4718697      0              0.18171231   
     37200   0.98532862     1.4776973      0              0.18243177   
     37300   1.0012208      1.5015309      0              0.18537418   
     37400   1.0253914      1.5377795      0              0.18984933   
     37500   0.99454464     1.4915186      0              0.1841381    
     37600   0.9878186      1.4814316      0              0.18289278   
     37700   0.98513385     1.4774052      0              0.18239571   
     37800   0.98575748     1.4783405      0              0.18251117   
     37900   0.98858298     1.4825779      0              0.18303431   
     38000   0.99490354     1.4920568      0              0.18420455   
     38100   1.0092931      1.5136368      0              0.18686874   
     38200   0.9933609      1.4897433      0              0.18391893   
     38300   1.0038842      1.5055252      0              0.18586731   
     38400   0.98604081     1.4787654      0              0.18256363   
     38500   0.98938318     1.483778       0              0.18318246   
     38600   0.99550455     1.4929582      0              0.18431582   
     38700   0.99531578     1.4926751      0              0.18428087   
     38800   0.99179578     1.4873961      0              0.18362915   
     38900   1.0098101      1.5144122      0              0.18696447   
     39000   1.0178394      1.5264538      0              0.18845109   
     39100   0.99997226     1.4996584      0              0.18514301   
     39200   1.0105253      1.5154847      0              0.18709688   
     39300   1.0130776      1.5193125      0              0.18756944   
     39400   1.0127448      1.5188134      0              0.18750783   
     39500   1.0094236      1.5138326      0              0.18689292   
     39600   0.99161031     1.487118       0              0.18359481   
     39700   1.0155207      1.5229763      0              0.18802177   
     39800   1.0059354      1.5086013      0              0.18624707   
     39900   0.99413051     1.4908975      0              0.18406142   
     40000   1.0025714      1.5035563      0              0.18562424   
Loop time of 7.78805 on 1 procs for 40000 steps with 5000 atoms

Performance: 2218783.941 tau/day, 5136.074 timesteps/s, 25.680 Matom-step/s
99.8% CPU use with 1 MPI tasks x 1 OpenMP threads

MPI task timing breakdown:
Section |  min time  |  avg time  |  max time  |%varavg| %total
---------------------------------------------------------------
Pair    | 0          | 0          | 0          |   0.0 |  0.00
Neigh   | 0.026834   | 0.026834   | 0.026834   |   0.0 |  0.34
Comm    | 0.15863    | 0.15863    | 0.15863    |   0.0 |  2.04
Output  | 0.0083699  | 0.0083699  | 0.0083699  |   0.0 |  0.11
Modify  | 7.1793     | 7.1793     | 7.1793     |   0.0 | 92.18
Other   |            | 0.415      |            |       |  5.33

Nlocal:           5000 ave        5000 max        5000 min
Histogram: 1 0 0 0 0 0 0 0 0 0
Nghost:              0 ave           0 max           0 min
Histogram: 1 0 0 0 0 0 0 0 0 0
Neighs:              0 ave           0 max           0 min
Histogram: 1 0 0 0 0 0 0 0 0 0

Total # of neighbors = 0
Ave neighs/atom = 0
Neighbor list builds = 5605
Dangerous builds = 0
Total wall time: 0:00:07
