LAMMPS (10 Sep 2025 - Development - patch_10Sep2025-660-g792d014343)
OMP_NUM_THREADS environment is not set. Defaulting to 1 thread.
  using 1 OpenMP thread(s) per MPI task
# ----------------------------------------------
# Mullar Plathe viscosity by momentum transfer in LJ fluid
# ----------------------------------------------

units           lj
dimension       3
boundary        p p p
atom_style      atomic

# -------------- USER PARAMETERS ----------------
variable T      equal 1.0        # target temperature
variable Tinit  equal 1.0        # equilibration temperature
variable dt     equal 0.00001

# Correlation sampling parameters
variable p      equal 400        # correlation length (samples)
variable s      equal 5          # sampling interval (steps)
variable d      equal ${p}*${s}  # dump interval
variable d      equal 400*${s}  
variable d      equal 400*5  

# In LJ units: kB = 1
variable kB     equal 1.0

# ---------------- SYSTEM SETUP -----------------
region          box block 0 20 0 20 0 20
create_box      1 box
Created orthogonal box = (0 0 0) to (20 20 20)
  1 by 1 by 1 MPI processor grid
lattice         fcc 0.6
Lattice spacing in x,y,z = 1.8820721 1.8820721 1.8820721
create_atoms    1 box
Created 5324 atoms
  using lattice units in orthogonal box = (0 0 0) to (20 20 20)
  create_atoms CPU = 0.001 seconds
mass            1 1.0

pair_style      lj/cut 3.0
pair_coeff      1 1 1.0 1.0 3.0

timestep        ${dt}
timestep        1e-05
thermo          ${d}
thermo          2000

# ------------------ EQUILIBRATION ------------------

velocity        all create ${Tinit} 12345 mom yes rot yes dist gaussian
velocity        all create 1 12345 mom yes rot yes dist gaussian
velocity        all scale ${T}
velocity        all scale 1

fix thermostat all langevin 1 1 0.1 34300
fix integrator all nve

thermo 100
thermo_style custom step temp press ke pe

run             50000
Generated 0 of 0 mixed pair_coeff terms from geometric mixing rule
Neighbor list info ...
  update: every = 1 steps, delay = 0 steps, check = yes
  max neighbors/atom: 2000, page size: 100000
  master list distance cutoff = 3.3
  ghost atom cutoff = 3.3
  binsize = 1.65, bins = 13 13 13
  1 neighbor lists, perpetual/occasional/extra = 1 0 0
  (1) pair lj/cut, perpetual
      attributes: half, newton on
      pair build: half/bin/atomonly/newton
      stencil: half/bin/3d
      bin: standard
Per MPI rank memory allocation (min/avg/max) = 4.19 | 4.19 | 4.19 Mbytes
   Step          Temp          Press          KinEng         PotEng    
         0   1              61635.337      1.4997183      23132.685    
       100   14782.023      9877.4627      22168.869      11.281741    
       200   14504.604      9682.3096      21752.82       7.3474204    
       300   10646.739      21490.522      15967.109      5398.6984    
       400   13578.172      10615.897      20363.433      587.30099    
       500   13498.267      9795.6093      20243.597      299.40827    
       600   13196.614      9742.1512      19791.204      354.17195    
       700   12951.089      9520.7259      19422.985      331.97078    
       800   12642.693      9527.8107      18960.477      410.96813    
       900   12303.778      9664.0633      18452.201      546.10775    
      1000   12116.422      9312.3021      18171.22       460.4094     
      1100   11888.01       9123.0037      17828.665      445.85651    
      1200   11561.804      9277.5829      17339.449      584.2615     
      1300   11420.762      8829.3322      17127.925      451.2733     
      1400   11222.742      8587.3796      16830.952      409.52846    
      1500   10839.744      8983.7171      16256.562      652.73254    
      1600   10657.962      8727.2664      15983.94       601.02886    
      1700   10468.933      8511.4599      15700.451      567.06046    
      1800   10288.764      8281.9763      15430.248      525.56562    
      1900   10063.772      8221.3162      15092.822      558.21274    
      2000   9867.0026      8081.4779      14797.724      554.56744    
      2100   9697.7417      7862.6577      14543.88       514.30338    
      2200   9461.4765      7887.3635      14189.549      581.71784    
      2300   9288.2822      7714.4283      13929.806      559.95195    
      2400   9071.0307      7705.257       13603.99       610.1628     
      2500   8920.5617      7487.8966      13378.329      566.01083    
      2600   8747.6028      7358.9422      13118.94       560.35701    
      2700   8535.4666      7375.4883      12800.795      618.93785    
      2800   8378.4313      7220.7208      12565.286      599.84331    
      2900   8227.0076      7062.3826      12338.194      578.0781     
      3000   8089.3355      6870.7135      12131.724      540.53603    
      3100   7919.7417      6798.3701      11877.381      555.33632    
      3200   7741.0629      6770.6395      11609.413      589.14275    
      3300   7594.2655      6645.2992      11389.259      578.73157    
      3400   7405.0741      6675.4383      11105.525      636.68864    
      3500   7290.5039      6469.3592      10933.702      588.06932    
      3600   7159.444       6327.658       10737.149      567.87197    
      3700   7029.693       6192.3425      10542.559      549.66416    
      3800   6909.9688      6033.9905      10363.006      520.28117    
      3900   6777.3127      5928.0058      10164.06       513.76463    
      4000   6660.1253      5781.2232      9988.3116      488.18162    
      4100   6521.7753      5714.7003      9780.8255      497.75867    
      4200   6416.8442      5546.6         9623.4585      461.03886    
      4300   6286.4408      5473.1988      9427.89        465.82025    
      4400   6141.0779      5463.3347      9209.8867      498.12421    
      4500   6021.5527      5376.239       9030.6325      495.35445    
      4600   5912.1595      5263.4474      8866.5736      480.42014    
      4700   5789.5387      5204.2658      8682.6769      488.88204    
      4800   5693.8628      5063.651       8539.1901      460.14908    
      4900   5561.4302      5055.86        8340.5784      490.14128    
      5000   5484.8167      4868.8726      8225.6797      439.42765    
      5100   5368.0661      4823.9984      8050.5867      451.69095    
      5200   5267.673       4733.0675      7900.0254      442.8562     
      5300   5153.7075      4696.0306      7729.1092      457.34809    
      5400   5064.0849      4585.5837      7594.7005      438.28873    
      5500   4941.3729      4594.3366      7410.6671      471.86848    
      5600   4863.1336      4463.0526      7293.3302      442.42397    
      5700   4780.4921      4352.0238      7169.3913      421.73735    
      5800   4677.1853      4317.556       7014.4602      434.53967    
      5900   4588.2672      4243.5692      6881.1081      428.99048    
      6000   4497.8918      4181.6087      6745.5704      428.2066     
      6100   4414.2698      4105.0203      6620.1611      420.39027    
      6200   4330.8733      4032.0142      6495.0898      413.9356     
      6300   4249.8722      3958.7368      6373.611       406.70798    
      6400   4168.8465      3892.2704      6252.0952      402.16642    
      6500   4082.4302      3850.4189      6122.4952      408.12877    
      6600   4002.6553      3792.5633      6002.8553      406.48859    
      6700   3957.3821      3623.2943      5934.9582      354.81904    
      6800   3878.4842      3572.8887      5816.6336      355.73249    
      6900   3817.1272      3469.0485      5724.6153      332.21673    
      7000   3721.7441      3485.4083      5581.5676      361.90325    
      7100   3653.4907      3418.6835      5479.2067      353.91225    
      7200   3580.1346      3373.2125      5369.1933      355.26825    
      7300   3530.9544      3251.508       5295.4367      322.28744    
      7400   3465.072       3191.4853      5196.6318      316.30156    
      7500   3377.9106      3209.8664      5065.9142      344.67996    
      7600   3317.4178      3143.1196      4975.192       334.70715    
      7700   3247.5309      3113.345       4870.3815      340.95905    
      7800   3182.4583      3073.3075      4772.7909      342.25575    
      7900   3140.3839      2960.2902      4709.691       310.67077    
      8000   3080.6589      2910.6018      4620.1204      307.06269    
      8100   3021.0538      2865.7323      4530.7296      305.14766    
      8200   2963.4814      2817.7625      4444.3871      301.60718    
      8300   2908.7084      2765.1341      4362.2431      295.60444    
      8400   2840.1056      2763.7072      4259.3582      312.07808    
      8500   2800.4361      2670.2841      4199.8652      287.2127     
      8600   2759.7584      2582.4945      4138.86        264.75056    
      8700   2707.4113      2538.1064      4060.3541      261.23621    
      8800   2652.8263      2506.6297      3978.492       262.95295    
      8900   2590.4322      2505.5685      3884.9185      277.96507    
      9000   2546.4658      2446.683       3818.9813      266.89726    
      9100   2490.1825      2433.4718      3734.5722      275.98832    
      9200   2453.9614      2356.1379      3680.2508      256.28025    
      9300   2409.2545      2310.7576      3613.203       250.60808    
      9400   2367.664       2257.4861      3550.829       241.18701    
      9500   2318.5839      2233.0224      3477.2226      244.35631    
      9600   2282.3533      2168.8436      3422.887       229.5413     
      9700   2242.2485      2121.3416      3362.741       221.86582    
      9800   2195.8925      2098.0671      3293.22        224.70648    
      9900   2154.7373      2059.5749      3231.4988      220.55505    
     10000   2109.9652      2038.9591      3164.3533      223.98093    
     10100   2073.2388      1994.0758      3109.2741      216.41068    
     10200   2034.327       1959.5654      3050.9173      213.24706    
     10300   1991.5014      1941.954       2986.6909      217.29553    
     10400   1954.0835      1908.9938      2930.5747      214.33599    
     10500   1921.5914      1861.7465      2881.8457      204.85648    
     10600   1881.9669      1841.6965      2822.4201      207.25396    
     10700   1848.1987      1805.5147      2771.7773      202.18524    
     10800   1808.9108      1789.8532      2712.8566      206.14456    
     10900   1778.0817      1748.8801      2666.6215      198.63968    
     11000   1753.5944      1688.8473      2629.8976      182.46061    
     11100   1714.9936      1678.6859      2572.0072      188.28471    
     11200   1678.6046      1663.8299      2517.4339      191.78015    
     11300   1649.2103      1628.732       2473.3507      186.05133    
     11400   1619.0496      1598.539       2428.1183      182.37969    
     11500   1592.151       1559.2048      2387.7779      174.51014    
     11600   1564.638       1524.5069      2346.5161      168.4815     
     11700   1531.6114      1511.0897      2296.9855      171.68343    
     11800   1502.0017      1487.9866      2252.5794      170.43007    
     11900   1473.5989      1464.7014      2209.9832      168.85414    
     12000   1448.238       1431.9234      2171.949       162.99148    
     12100   1424.749       1394.8504      2136.7221      155.04598    
     12200   1395.6335      1378.6918      2093.0571      156.27623    
     12300   1367.3486      1362.7056      2050.6376      157.36316    
     12400   1342.5765      1336.9113      2013.4864      153.94066    
     12500   1319.6563      1306.5891      1979.1126      148.38306    
     12600   1293.932       1287.7723      1940.5334      147.81407    
     12700   1271.8609      1258.7625      1907.433       142.53303    
     12800   1248.7841      1235.1774      1872.8243      139.51748    
     12900   1226.0774      1211.9099      1838.7706      136.49755    
     13000   1199.5398      1203.1928      1798.9718      139.84529    
     13100   1179.0601      1176.2633      1768.258       134.9117     
     13200   1156.3558      1158.8703      1734.2079      134.09358    
     13300   1137.1739      1131.4984      1705.4404      128.67639    
     13400   1115.0262      1115.2079      1672.2252      128.10708    
     13500   1090.5978      1108.7233      1635.5894      131.7405     
     13600   1068.4488      1096.3737      1602.3722      132.63855    
     13700   1046.3252      1085.6328      1569.1929      134.18094    
     13800   1029.4353      1058.834       1543.8629      128.48757    
     13900   1015.1339      1024.2792      1522.4149      119.2936     
     14000   1000.7015      991.42478      1500.7704      110.7419     
     14100   981.00965      977.77422      1471.2381      110.59143    
     14200   960.62719      968.15896      1440.6701      112.07531    
     14300   943.06818      950.60485      1414.3366      109.89022    
     14400   923.14945      942.43656      1384.4641      111.80516    
     14500   907.69221      920.37765      1361.2826      107.45464    
     14600   891.50198      902.18594      1337.0018      104.74576    
     14700   876.56645      881.15817      1314.6027      100.65156    
     14800   859.05165      870.61279      1288.3354      101.0602     
     14900   840.60972      864.35526      1260.6777      103.25878    
     15000   822.13126      859.71382      1232.9653      106.05659    
     15100   803.24331      857.88412      1204.6386      110.02958    
     15200   790.84101      835.55848      1186.0387      104.78761    
     15300   774.79289      825.77665      1161.971       105.14466    
     15400   761.01438      810.18776      1141.3072      102.78843    
     15500   747.22943      795.54403      1120.6336      100.79887    
     15600   734.31676      778.93387      1101.2683      97.868897    
     15700   723.19227      757.31789      1084.5847      92.633566    
     15800   710.33598      742.33433      1065.3038      90.28576     
     15900   697.01809      730.85045      1045.3308      89.328309    
     16000   681.65782      727.23516      1022.2947      91.790229    
     16100   668.06283      718.49669      1001.906       91.915429    
     16200   655.81073      706.14166      983.53133      90.379847    
     16300   643.19041      696.40078      964.60439      89.916154    
     16400   631.19822      685.36794      946.6195       88.828525    
     16500   621.63108      666.94344      932.27148      84.396901    
     16600   611.10024      652.90223      916.47819      81.827887    
     16700   598.36771      646.70872      897.38299      82.711698    
     16800   586.9967       636.73458      880.32967      81.855107    
     16900   578.24434      619.17486      867.20359      77.536536    
     17000   567.68409      608.10705      851.3662       76.081465    
     17100   557.4023       597.08252      835.9464       74.569563    
     17200   548.30785      583.53739      822.30729      71.820413    
     17300   537.09858      577.32431      805.49654      72.311669    
     17400   526.96064      568.86937      790.29249      71.693558    
     17500   517.21592      559.3358       775.67816      70.576484    
     17600   507.30444      551.51371      760.81373      70.132538    
     17700   497.07692      545.63448      745.47533      70.48392     
     17800   487.03658      540.09373      730.41765      70.91392     
     17900   477.46095      533.65766      716.0569       70.905977    
     18000   468.92822      524.35974      703.26021      69.589967    
     18100   461.05208      513.32016      691.44823      67.476039    
     18200   453.20904      502.81472      679.68588      65.553945    
     18300   445.07187      494.03694      667.48242      64.336594    
     18400   436.11002      488.63589      654.04216      64.566376    
     18500   427.33621      483.26002      640.88392      64.755071    
     18600   419.99481      474.00774      629.87388      63.149463    
     18700   412.48519      465.78157      618.61158      61.96507     
     18800   403.90647      461.6318       605.74591      62.560648    
     18900   396.94909      452.94784      595.3118       61.069554    
     19000   389.97382      444.67022      584.85085      59.737866    
     19100   382.43748      438.5544       573.54847      59.347436    
     19200   375.34337      432.1065       562.9093       58.722296    
     19300   368.4309       425.1183       552.54255      57.850916    
     19400   361.60558      418.69892      542.30648      57.169884    
     19500   354.75066      413.02287      532.02604      56.776128    
     19600   348.36105      406.23082      522.44342      55.858148    
     19700   342.5681       397.79642      513.75563      54.186801    
     19800   336.71751      390.16445      504.9814       52.82633     
     19900   330.09288      385.50278      495.04631      52.757783    
     20000   323.68166      380.61296      485.43129      52.548542    
     20100   317.54583      375.55811      476.22927      52.21207     
     20200   311.97637      368.84303      467.87665      51.120699    
     20300   306.61503      361.99602      459.83616      49.931216    
     20400   301.44205      354.9043       452.07814      48.602275    
     20500   295.9166       349.36376      443.79152      47.934388    
     20600   290.47389      344.03061      435.62899      47.318048    
     20700   285.02627      339.2002       427.4591       46.885168    
     20800   279.58037      334.62699      419.29179      46.543432    
     20900   274.52339      329.43776      411.70773      45.872395    
     21000   269.26794      325.3669       403.82605      45.662418    
     21100   263.75122      322.57521      395.55251      45.991053    
     21200   258.52645      318.96577      387.71684      45.94627     
     21300   253.76795      314.24857      380.58043      45.380304    
     21400   249.15325      309.7944       373.65968      44.882808    
     21500   244.6111       305.42627      366.84773      44.405135    
     21600   240.15465      300.8544       360.16432      43.837681    
     21700   236.18603      294.78075      354.21251      42.59879     
     21800   232.72574      287.37688      349.02304      40.742452    
     21900   228.72335      282.27657      343.02058      39.873448    
     22000   224.22374      279.0443       336.27243      39.81617     
     22100   220.08397      275.10063      330.06394      39.402302    
     22200   216.41069      270.02788      324.55506      38.4523      
     22300   212.64204      265.3721       318.90316      37.678629    
     22400   208.63176      262.01637      312.88887      37.445396    
     22500   204.41122      259.31075      306.55923      37.507219    
     22600   200.74573      255.24802      301.06204      36.932697    
     22700   197.4471       250.33452      296.11502      35.958422    
     22800   194.33478      245.00568      291.44742      34.78922     
     22900   191.47057      239.25318      287.15191      33.402531    
     23000   188.42536      234.34607      282.58495      32.372233    
     23100   185.16188      230.15074      277.69065      31.654369    
     23200   181.70286      226.97381      272.5031       31.356487    
     23300   177.98088      224.88457      266.92118      31.524083    
     23400   174.77696      221.65425      262.1162       31.13877     
     23500   171.86062      217.48675      257.74251      30.335245    
     23600   168.98907      213.54275      253.43599      29.602666    
     23700   165.95987      210.3402       248.89304      29.18178     
     23800   162.93996      207.35465      244.36403      28.835905    
     23900   159.95994      204.23355      239.89484      28.427015    
     24000   157.01775      201.37929      235.48239      28.105424    
     24100   154.09819      198.82812      231.10387      27.888327    
     24200   151.15867      196.56311      226.69542      27.781037    
     24300   148.22622      194.4062       222.29756      27.712059    
     24400   145.3908       192.08615      218.04524      27.559551    
     24500   142.69172      189.69836      213.99737      27.350119    
     24600   140.02605      187.26888      209.99963      27.119008    
     24700   137.36688      184.99523      206.01161      26.946036    
     24800   134.78479      182.86008      202.13921      26.807791    
     24900   132.2728       180.57558      198.37193      26.599352    
     25000   129.89329      178.07228      194.80334      26.280737    
     25100   127.76461      175.11166      191.61091      25.734277    
     25200   125.708        171.84067      188.52659      25.05819     
     25300   123.71805      168.42001      185.54221      24.3118      
     25400   121.73899      165.28305      182.57419      23.667744    
     25500   119.63806      162.56622      179.42339      23.208408    
     25600   117.57447      159.94808      176.32858      22.774914    
     25700   115.59289      157.18697      173.35677      22.266827    
     25800   113.67067      154.4686       170.47397      21.758434    
     25900   111.69515      152.11464      167.51126      21.39647     
     26000   109.62914      150.14101      164.41282      21.196409    
     26100   107.64247      148.18835      161.43338      20.983813    
     26200   105.74675      146.01105      158.59033      20.665555    
     26300   103.91198      143.76634      155.83869      20.307882    
     26400   102.12764      141.40598      153.16269      19.895177    
     26500   100.41529      139.08779      150.59465      19.479923    
     26600   98.666953      136.96807      147.97263      19.146254    
     26700   96.963641      135.02142      145.41814      18.86455     
     26800   95.269685      133.0855       142.87769      18.584088    
     26900   93.61186       131.00018      140.39142      18.239249    
     27000   92.03206       128.83463      138.02216      17.8451      
     27100   90.504551      126.81681      135.73133      17.492353    
     27200   88.923206      124.96629      133.35976      17.214199    
     27300   87.398417      123.12772      131.073        16.925576    
     27400   85.898774      121.18797      128.82396      16.592156    
     27500   84.40734       119.37662      126.58723      16.303208    
     27600   82.885654      117.70906      124.30513      16.073582    
     27700   81.407545      116.16562      122.08838      15.877806    
     27800   79.916086      114.70901      119.85161      15.716209    
     27900   78.412262      113.3124       117.5963       15.578762    
     28000   76.950205      112.01238      115.40363      15.465953    
     28100   75.49756       110.84504      113.22507      15.399444    
     28200   74.044384      109.8018       111.04571      15.379243    
     28300   72.642477      108.77866      108.94325      15.354767    
     28400   71.254343      107.61385      106.86144      15.276011    
     28500   69.94161       106.23777      104.89271      15.102551    
     28600   68.767584      104.62443      103.132        14.809142    
     28700   67.686996      102.84997      101.51142      14.434802    
     28800   66.607034      101.0652       99.891786      14.057644    
     28900   65.548078      99.342752      98.303649      13.69888     
     29000   64.525802      97.704292      96.770523      13.362216    
     29100   63.477357      96.132794      95.198151      13.05657     
     29200   62.428675      94.597548      93.625424      12.763946    
     29300   61.3708        93.048151      92.038909      12.46772     
     29400   60.365831      91.596495      90.531739      12.193901    
     29500   59.33181       90.280913      88.980999      11.97677     
     29600   58.279376      89.078927      87.402643      11.805505    
     29700   57.272783      87.921329      85.893038      11.63877     
     29800   56.277168      86.725216      84.399897      11.454665    
     29900   55.312289      85.569699      82.952849      11.277642    
     30000   54.341976      84.529267      81.497653      11.144173    
     30100   53.36308       83.585209      80.029585      11.048392    
     30200   52.374402      82.631723      78.546848      10.951557    
     30300   51.432841      81.667668      77.134771      10.839588    
     30400   50.49802       80.675159      75.732802      10.716014    
     30500   49.617565      79.67803       74.412368      10.577948    
     30600   48.7444        78.645578      73.102867      10.425799    
     30700   47.932913      77.618565      71.885865      10.261325    
     30800   47.114953      76.540818      70.659155      10.080812    
     30900   46.32221       75.403334      69.470264      9.8732217    
     31000   45.575074      74.18614       68.34977       9.626084     
     31100   44.870684      72.885014      67.293385      9.3382926    
     31200   44.189587      71.52935       66.271931      9.0251625    
     31300   43.525254      70.171503      65.275617      8.707123     
     31400   42.888776      68.890261      64.32108       8.4100191    
     31500   42.23845       67.728142      63.345775      8.1593343    
     31600   41.535114      66.697322      62.290969      7.9689537    
     31700   40.79882       65.801486      61.186734      7.8352312    
     31800   40.051509      65.00104       60.065979      7.7383109    
     31900   39.375794      64.2795        59.052597      7.6520224    
     32000   38.658928      63.518394      57.977499      7.5606306    
     32100   37.965525      62.750464      56.937591      7.4605992    
     32200   37.311237      61.986927      55.956343      7.3524916    
     32300   36.667934      61.216146      54.99157       7.2390097    
     32400   36.031554      60.430733      54.037179      7.11855      
     32500   35.423761      59.637134      53.125661      6.9881142    
     32600   34.854258      58.830185      52.271568      6.8435445    
     32700   34.271369      57.986246      51.397397      6.6888562    
     32800   33.705253      57.145337      50.548384      6.5313451    
     32900   33.162135      56.33815       49.733859      6.3806975    
     33000   32.632642      55.567472      48.93977       6.2402732    
     33100   32.112768      54.831546      48.160104      6.1102946    
     33200   31.569431      54.093689      47.345252      5.9853554    
     33300   31.040555      53.362639      46.552087      5.859331     
     33400   30.51644       52.619785      45.766062      5.727667     
     33500   30.023799      51.879705      45.02724       5.5891945    
     33600   29.536147      51.145015      44.295899      5.4512921    
     33700   29.059735      50.446899      43.581415      5.3237271    
     33800   28.579851      49.78457       42.861724      5.2098459    
     33900   28.093584      49.165252      42.13246       5.1129679    
     34000   27.608618      48.585397      41.405149      5.0300024    
     34100   27.126054      48.029881      40.681439      4.9551324    
     34200   26.674717      47.497457      40.00456       4.8810026    
     34300   26.213918      46.940252      39.313491      4.8001152    
     34400   25.755195      46.352808      38.625537      4.7077321    
     34500   25.331304      45.755897      37.989819      4.6035231    
     34600   24.916093      45.135376      37.36712       4.4886658    
     34700   24.501924      44.499376      36.745982      4.3681136    
     34800   24.109903      43.884038      36.158061      4.2499765    
     34900   23.711692      43.27863       35.560858      4.1371472    
     35000   23.325744      42.691097      34.982045      4.0280578    
     35100   22.931083      42.098502      34.390164      3.9192484    
     35200   22.570999      41.516018      33.850139      3.805816     
     35300   22.217199      40.921369      33.319538      3.6865233    
     35400   21.874908      40.326514      32.8062        3.5645119    
     35500   21.52114       39.723822      32.275647      3.4424763    
     35600   21.187341      39.140192      31.775042      3.3225262    
     35700   20.856236      38.56721       31.278477      3.2057652    
     35800   20.545991      38.019663      30.813197      3.0931139    
     35900   20.229587      37.482541      30.338681      2.9856304    
     36000   19.919204      36.963789      29.873194      2.8832093    
     36100   19.626033      36.466634      29.433519      2.7843852    
     36200   19.3179        35.968258      28.971408      2.6885634    
     36300   19.009644      35.47706       28.50911       2.5951936    
     36400   18.723888      35.006245      28.080557      2.5035632    
     36500   18.440386      34.543641      27.655384      2.4141067    
     36600   18.147877      34.082288      27.216703      2.3270424    
     36700   17.858147      33.632476      26.78219       2.2433009    
     36800   17.588234      33.208236      26.377396      2.1637948    
     36900   17.298396      32.785664      25.94272       2.0894578    
     37000   17.005326      32.374811      25.503198      2.0199325    
     37100   16.740242      31.996605      25.105646      1.9553058    
     37200   16.480598      31.631904      24.716254      1.8940505    
     37300   16.202297      31.259167      24.29888       1.8343006    
     37400   15.942557      30.893942      23.909344      1.7727079    
     37500   15.691667      30.523404      23.53308       1.7070012    
     37600   15.448415      30.146367      23.168269      1.6370216    
     37700   15.211105      29.761887      22.812372      1.5628685    
     37800   14.973727      29.37011       22.456372      1.4861055    
     37900   14.735836      28.974929      22.099603      1.4081957    
     38000   14.51269       28.592676      21.764945      1.3314684    
     38100   14.287687      28.215257      21.427506      1.2569535    
     38200   14.07264       27.852568      21.104995      1.1853214    
     38300   13.860839      27.500778      20.787353      1.1168577    
     38400   13.647681      27.158558      20.467676      1.0521441    
     38500   13.422629      26.819416      20.130161      0.99127949   
     38600   13.224092      26.508642      19.832412      0.93425341   
     38700   13.016497      26.20053       19.521079      0.88033739   
     38800   12.808852      25.901506      19.209669      0.82969374   
     38900   12.601344      25.610208      18.898466      0.78172095   
     39000   12.40217       25.330508      18.59976       0.73591939   
     39100   12.209251      25.05348       18.310437      0.68964693   
     39200   12.011163      24.769339      18.01336       0.64206984   
     39300   11.824963      24.486871      17.734112      0.59227273   
     39400   11.632568      24.1934        17.445575      0.54002419   
     39500   11.46477       23.908024      17.193924      0.48486173   
     39600   11.298746      23.615318      16.944935      0.42667507   
     39700   11.135905      23.318813      16.700721      0.36650259   
     39800   10.976793      23.019452      16.462096      0.30451102   
     39900   10.808141      22.710966      16.209166      0.24161446   
     40000   10.654701      22.410896      15.97905       0.17811853   
     40100   10.507617      22.114671      15.758466      0.11454998   
     40200   10.359904      21.819029      15.536938      0.051426213  
     40300   10.207973      21.524522      15.309084     -0.010302818  
     40400   10.077065      21.24907       15.112758     -0.07022777   
     40500   9.9346094      20.974051      14.899115     -0.12728277   
     40600   9.7993089      20.710842      14.696202     -0.1818633    
     40700   9.660914       20.45089       14.488649     -0.23457606   
     40800   9.5224098      20.194017      14.280932     -0.28616819   
     40900   9.3857114      19.94027       14.075923     -0.3370692    
     41000   9.2551298      19.691299      13.880087     -0.38778268   
     41100   9.1162154      19.436782      13.671755     -0.43859346   
     41200   8.9977356      19.195141      13.494068     -0.48973664   
     41300   8.8723044      18.947872      13.305957     -0.5413455    
     41400   8.7492737      18.701738      13.121445     -0.59324343   
     41500   8.6306486      18.459305      12.943541     -0.64492013   
     41600   8.5108477      18.219134      12.763874     -0.69563436   
     41700   8.3985925      17.98873       12.595523     -0.74471495   
     41800   8.2896486      17.76592       12.432137     -0.79200099   
     41900   8.1802076      17.548765      12.268007     -0.83722406   
     42000   8.0672553      17.334851      12.09861      -0.8805161    
     42100   7.9581263      17.129282      11.934947     -0.92178226   
     42200   7.850194       16.931477      11.773079     -0.96063859   
     42300   7.7365519      16.735615      11.602648     -0.99750844   
     42400   7.6323279      16.551684      11.446342     -1.0324531    
     42500   7.5375134      16.376041      11.304146     -1.0667086    
     42600   7.4422887      16.201692      11.161336     -1.1004582    
     42700   7.3366437      16.020385      11.002899     -1.1342529    
     42800   7.2264024      15.835753      10.837568     -1.1682187    
     42900   7.1281536      15.6588        10.690222     -1.2023247    
     43000   7.0267419      15.477865      10.538133     -1.2370954    
     43100   6.9340394      15.299549      10.399106     -1.2729649    
     43200   6.8334384      15.114327      10.248232     -1.3094395    
     43300   6.748607       14.939221      10.121009     -1.3460954    
     43400   6.6587672      14.761192      9.9862747     -1.382641     
     43500   6.569876       14.585398      9.8529629     -1.418666     
     43600   6.4797343      14.41071       9.7177758     -1.454015     
     43700   6.3893192      14.238058      9.5821787     -1.4886637    
     43800   6.294103       14.063763      9.4393812     -1.5227824    
     43900   6.2213423      13.90604       9.3302607     -1.5563277    
     44000   6.1408517      13.746355      9.2095474     -1.5888342    
     44100   6.0556811      13.585789      9.0818155     -1.6205793    
     44200   5.9681542      13.425517      8.9505498     -1.6516968    
     44300   5.8845588      13.269366      8.8251803     -1.6823016    
     44400   5.8113535      13.121681      8.7153929     -1.7123675    
     44500   5.7340637      12.973078      8.59948       -1.7418625    
     44600   5.6664409      12.832443      8.4980649     -1.770843     
     44700   5.5956456      12.691543      8.3918919     -1.7991576    
     44800   5.5158883      12.546811      8.2722784     -1.8267739    
     44900   5.439839       12.407618      8.1582258     -1.8533315    
     45000   5.37295        12.278244      8.0579112     -1.8786294    
     45100   5.3010706      12.148816      7.9501123     -1.9027958    
     45200   5.2309766      12.023818      7.8449911     -1.9258626    
     45300   5.1596428      11.899065      7.7380105     -1.9484844    
     45400   5.0873443      11.774423      7.6295832     -1.9707989    
     45500   5.0239775      11.657039      7.5345507     -1.9926443    
     45600   4.9599445      11.539739      7.4385194     -2.0142326    
     45700   4.8865448      11.417183      7.3284405     -2.0354864    
     45800   4.8217627      11.300468      7.2312856     -2.0567304    
     45900   4.7659326      11.188685      7.1475562     -2.0783259    
     46000   4.7044287      11.0712        7.0553176     -2.1005709    
     46100   4.6470346      10.953857      6.9692426     -2.123752     
     46200   4.5854681      10.831914      6.8769102     -2.1475167    
     46300   4.5336957      10.714152      6.7992661     -2.1720891    
     46400   4.4879023      10.597841      6.730589      -2.197498     
     46500   4.4342922      10.473926      6.6501889     -2.2237391    
     46600   4.3802639      10.347747      6.5691618     -2.25067      
     46700   4.3317529      10.224108      6.4964089     -2.2779635    
     46800   4.2790476      10.09693       6.4173659     -2.3054867    
     46900   4.2267974      9.9699388      6.3390052     -2.3330615    
     47000   4.1764295      9.843909       6.2634675     -2.3607027    
     47100   4.1328379      9.7225912      6.1980925     -2.3882077    
     47200   4.0896809      9.6027329      6.1333691     -2.4153012    
     47300   4.0554853      9.4897134      6.0820854     -2.4420697    
     47400   4.0090366      9.368927       6.0124253     -2.4686323    
     47500   3.9705381      9.2540331      5.9546884     -2.4949628    
     47600   3.9231824      9.1346498      5.8836683     -2.5208174    
     47700   3.8936419      9.0286961      5.8393659     -2.5461325    
     47800   3.8474262      8.9125888      5.7700554     -2.5711245    
     47900   3.8063867      8.8009316      5.7085076     -2.5957849    
     48000   3.7721012      8.6943966      5.6570891     -2.6201989    
     48100   3.7275931      8.581724       5.5903394     -2.6444173    
     48200   3.6887881      8.4733367      5.5321428     -2.6684935    
     48300   3.6550558      8.3689189      5.4815538     -2.6924296    
     48400   3.6197476      8.2647212      5.4286015     -2.7159557    
     48500   3.5799563      8.1583027      5.3689258     -2.7392591    
     48600   3.5413163      8.0534001      5.3109767     -2.7623068    
     48700   3.5098988      7.9544366      5.2638593     -2.7849967    
     48800   3.4722455      7.8524768      5.20739       -2.8072768    
     48900   3.4329624      7.7513341      5.1484763     -2.8289402    
     49000   3.397221       7.6548495      5.0948744     -2.8498661    
     49100   3.3649375      7.5634856      5.0464581     -2.8698813    
     49200   3.3310537      7.4727331      4.995642      -2.8893792    
     49300   3.2936153      7.3817165      4.9394949     -2.9082055    
     49400   3.2639507      7.2978585      4.8950065     -2.926389     
     49500   3.2283642      7.212307       4.8416367     -2.9438733    
     49600   3.1835339      7.1226021      4.774404      -2.9607716    
     49700   3.1526152      7.0440789      4.7280345     -2.9770491    
     49800   3.1227389      6.9670779      4.6832285     -2.9930636    
     49900   3.0854263      6.8865402      4.6272701     -3.0086886    
     50000   3.0528021      6.8102139      4.578343      -3.0239922    
Loop time of 180.922 on 1 procs for 50000 steps with 5324 atoms

Performance: 238.777 tau/day, 276.363 timesteps/s, 1.471 Matom-step/s
100.0% CPU use with 1 MPI tasks x 1 OpenMP threads

MPI task timing breakdown:
Section |  min time  |  avg time  |  max time  |%varavg| %total
---------------------------------------------------------------
Pair    | 153.26     | 153.26     | 153.26     |   0.0 | 84.71
Neigh   | 6.9876     | 6.9876     | 6.9876     |   0.0 |  3.86
Comm    | 1.7604     | 1.7604     | 1.7604     |   0.0 |  0.97
Output  | 0.021412   | 0.021412   | 0.021412   |   0.0 |  0.01
Modify  | 17.799     | 17.799     | 17.799     |   0.0 |  9.84
Other   |            | 1.09       |            |       |  0.60

Nlocal:           5324 ave        5324 max        5324 min
Histogram: 1 0 0 0 0 0 0 0 0 0
Nghost:           7012 ave        7012 max        7012 min
Histogram: 1 0 0 0 0 0 0 0 0 0
Neighs:         264835 ave      264835 max      264835 min
Histogram: 1 0 0 0 0 0 0 0 0 0

Total # of neighbors = 264835
Ave neighs/atom = 49.743614
Neighbor list builds = 595
Dangerous builds = 0
variable dt     equal 0.005
timestep        ${dt}
timestep        0.005
run             50000
Generated 0 of 0 mixed pair_coeff terms from geometric mixing rule
Per MPI rank memory allocation (min/avg/max) = 4.199 | 4.199 | 4.199 Mbytes
   Step          Temp          Press          KinEng         PotEng    
     50000   3.0528021      6.8102139      4.578343      -3.0239922    
     50100   1.0186165      0.27437057     1.5276378     -4.4092221    
     50200   1.0015509      0.19291982     1.5020441     -4.4269811    
     50300   1.0063526      0.14429954     1.5092454     -4.4375893    
     50400   0.99923567     0.049783037    1.498572      -4.4550135    
     50500   1.0019119      0.16392416     1.5025855     -4.4385691    
     50600   0.98738827     0.01505102     1.4808042     -4.4741021    
     50700   0.99324458     0.17116995     1.489587      -4.440483     
     50800   0.99512555     0.12837387     1.492408      -4.4485035    
     50900   0.9886716      0.18240554     1.4827288     -4.4264313    
     51000   1.002728       0.078878336    1.5038095     -4.4560179    
     51100   0.98271543     0.21840061     1.4737963     -4.4227759    
     51200   0.9999445      0.080619025    1.499635      -4.4501466    
     51300   1.0157656      0.066274969    1.5233622     -4.4638994    
     51400   0.99172117     0.091797184    1.4873023     -4.4522225    
     51500   1.0112043      0.064897729    1.5165215     -4.4588189    
     51600   0.99161626     0.10083527     1.487145      -4.4530229    
     51700   1.0006714      0.082184538    1.5007252     -4.4575316    
     51800   1.0149238      0.13154921     1.5220997     -4.4448356    
     51900   0.99723611     0.10738788     1.4955732     -4.4573169    
     52000   0.99146653     0.13912049     1.4869205     -4.4530099    
     52100   0.99778344     0.13350843     1.496394      -4.4598147    
     52200   0.99995272     0.11822107     1.4996474     -4.462876     
     52300   0.99369773     0.12085484     1.4902666     -4.4601541    
     52400   0.98385334     0.20906976     1.4755028     -4.4394423    
     52500   1.0024352      0.1606123      1.5033703     -4.4454978    
     52600   0.99117356     0.12630305     1.4864811     -4.4530032    
     52700   0.97382808     0.057168686    1.4604678     -4.4587683    
     52800   1.0296049      0.22290625     1.5441173     -4.434467     
     52900   0.99503672     0.13211497     1.4922747     -4.454848     
     53000   1.0114635      0.13489506     1.5169103     -4.4638032    
     53100   1.0164515      0.17832656     1.5243909     -4.4475696    
     53200   0.98847533     0.10533628     1.4824345     -4.4604377    
     53300   1.0103112      0.052690603    1.5151821     -4.4773315    
     53400   0.99988529     0.18594433     1.4995462     -4.4459037    
     53500   1.0101023      0.26966685     1.5148689     -4.4339698    
     53600   0.99196112     0.20083947     1.4876622     -4.4390914    
     53700   1.0047038      0.19578468     1.5067726     -4.4490134    
     53800   1.0215555      0.14636048     1.5320454     -4.4519076    
     53900   0.99935626     0.14799705     1.4987528     -4.4448859    
     54000   0.99784359     0.14081808     1.4964843     -4.4374492    
     54100   1.0016581      0.10051791     1.5022049     -4.452024     
     54200   0.99749067     0.08505646     1.495955      -4.4456573    
     54300   1.0002716      0.19456165     1.5001256     -4.4325569    
     54400   0.99926983     0.11809233     1.4986232     -4.4465267    
     54500   0.99835079     0.037055347    1.4972449     -4.4646578    
     54600   1.0068211      0.1450453      1.509948      -4.438938     
     54700   0.9959565      0.19672501     1.4936541     -4.4286879    
     54800   0.99917892     0.1605887      1.4984869     -4.4404304    
     54900   1.0111975      0.18538144     1.5165113     -4.4435046    
     55000   0.98316144     0.065747002    1.4744652     -4.466793     
     55100   1.0017179      0.047485951    1.5022946     -4.4664641    
     55200   1.0030253      0.25744703     1.5042553     -4.4252362    
     55300   0.9873979      0.19672895     1.4808187     -4.4332184    
     55400   0.98972468     0.10839156     1.4843082     -4.4516284    
     55500   0.99689047     0.19201874     1.4950548     -4.4378693    
     55600   0.98670369     0.1521449      1.4797775     -4.4537223    
     55700   0.99028957     0.21809594     1.4851553     -4.4360147    
     55800   1.0131193      0.20000217     1.5193936     -4.4462889    
     55900   0.99394985     0.12165331     1.4906447     -4.453188     
     56000   0.99463543     0.10657327     1.4916729     -4.4558683    
     56100   1.0088682      0.17053287     1.5130181     -4.4375748    
     56200   1.0060312      0.10851905     1.5087634     -4.454259     
     56300   1.018039       0.16237304     1.5267716     -4.4545623    
     56400   0.99076776     0.076284196    1.4858725     -4.4596006    
     56500   0.99150022     0.20407565     1.486971      -4.4309274    
     56600   0.9922716      0.11426478     1.4881278     -4.4584557    
     56700   0.9909796      0.13362017     1.4861902     -4.4465778    
     56800   0.99003119     0.12554205     1.4847678     -4.4533916    
     56900   0.99053787     0.070087717    1.4855277     -4.470737     
     57000   0.99560381     0.17133709     1.4931252     -4.4439138    
     57100   1.0063364      0.12230816     1.5092211     -4.4636931    
     57200   0.99549727     0.23823355     1.4929654     -4.4364982    
     57300   0.99835828     0.18956247     1.4972561     -4.4454617    
     57400   0.97617646     0.13829202     1.4639897     -4.4446238    
     57500   0.99452247     0.12149372     1.4915035     -4.4562065    
     57600   1.0027254      0.14080085     1.5038056     -4.4452156    
     57700   0.99966837     0.13787641     1.4992209     -4.4448806    
     57800   0.98459868     0.15722932     1.4766206     -4.4356357    
     57900   1.0008208      0.1202132      1.5009493     -4.4577277    
     58000   1.0091222      0.087349397    1.513399      -4.4587147    
     58100   0.99317305     0.076763779    1.4894798     -4.4597271    
     58200   0.99590577     0.16671233     1.4935781     -4.4382939    
     58300   0.97809806     0.065882241    1.4668715     -4.4484544    
     58400   0.9909747      0.14611536     1.4861829     -4.4404972    
     58500   1.0042751      0.03911289     1.5061297     -4.4687336    
     58600   1.0095195      0.1207243      1.5139949     -4.4460586    
     58700   1.0025898      0.17998817     1.5036022     -4.4285672    
     58800   1.0066144      0.14966772     1.509638      -4.4373382    
     58900   0.98000838     0.15733938     1.4697365     -4.431265     
     59000   1.0049082      0.065085564    1.5070792     -4.4638943    
     59100   0.98580044     0.098497416    1.4784229     -4.4613547    
     59200   0.99622451     0.085591069    1.4940561     -4.4511402    
     59300   1.0059634      0.13161016     1.5086617     -4.4351788    
     59400   0.99421414     0.063320861    1.4910411     -4.4479613    
     59500   1.0128555      0.15909547     1.5189979     -4.4368108    
     59600   0.99291308     0.11898672     1.4890899     -4.4596379    
     59700   0.99740538     0.20332429     1.4958271     -4.4274297    
     59800   0.98692451     0.13465121     1.4801087     -4.4437874    
     59900   0.9978501      0.18139822     1.496494      -4.4386215    
     60000   1.0050655      0.11385101     1.507315      -4.460409     
     60100   1.0167417      0.18909918     1.5248261     -4.4296967    
     60200   0.98989682     0.11239094     1.4845663     -4.4388533    
     60300   0.99390866     0.074232259    1.490583      -4.4625432    
     60400   0.99340053     0.13284987     1.4898209     -4.4411592    
     60500   0.99708753     0.19587298     1.4953504     -4.4379275    
     60600   0.99631146     0.06128042     1.4941865     -4.4644455    
     60700   0.99950383     0.098641743    1.4989741     -4.4555736    
     60800   1.0112504      0.0981959      1.5165907     -4.4631998    
     60900   1.0101574      0.18609312     1.5149515     -4.4464809    
     61000   1.0019158      0.11739527     1.5025915     -4.4534374    
     61100   1.0049706      0.050229791    1.5071728     -4.4701668    
     61200   1.0062122      0.17431888     1.5090349     -4.4336602    
     61300   1.0040507      0.14867069     1.5057931     -4.4451369    
     61400   0.98479594     0.04100211     1.4769165     -4.4680681    
     61500   0.9901808      0.097627554    1.4849922     -4.4575288    
     61600   1.0010776      0.1832717      1.5013344     -4.4343885    
     61700   0.99998759     0.10091099     1.4996996     -4.4561466    
     61800   1.0017881      0.1199489      1.5023999     -4.4421826    
     61900   0.99566098     0.15998695     1.4932109     -4.4422041    
     62000   0.99325713     0.18060829     1.4896059     -4.4446888    
     62100   1.0028566      0.18251588     1.5040024     -4.4396796    
     62200   1.0010253      0.14991192     1.501256      -4.4455777    
     62300   1.0334997      0.19704552     1.5499583     -4.4393547    
     62400   1.0097241      0.14500699     1.5143016     -4.4615083    
     62500   0.99568181     0.083468704    1.4932422     -4.4748153    
     62600   1.0151513      0.15378438     1.522441      -4.4739615    
     62700   0.99570154     0.053590223    1.4932718     -4.4783705    
     62800   1.010779       0.15143553     1.5158838     -4.468544     
     62900   0.98503695     0.18189326     1.4772779     -4.44315      
     63000   1.0030184      0.12767894     1.504245      -4.4577237    
     63100   0.99585891     0.1133345      1.4935078     -4.4476401    
     63200   1.000282       0.14432011     1.5001412     -4.4366249    
     63300   1.0205135      0.054469684    1.5304827     -4.4612929    
     63400   1.0052725      0.075765854    1.5076255     -4.4640777    
     63500   1.0074565      0.10157188     1.5109009     -4.4567418    
     63600   0.99338277     0.045402137    1.4897943     -4.4657401    
     63700   1.0043764      0.060520194    1.5062816     -4.4666725    
     63800   1.0098015      0.071190375    1.5144177     -4.4734811    
     63900   0.98394141     0.10950095     1.4756349     -4.4553278    
     64000   0.98862558     0.16862141     1.4826598     -4.448081     
     64100   0.99633612     0.085789656    1.4942235     -4.4619884    
     64200   0.97862035     0.10145815     1.4676548     -4.4511172    
     64300   0.99802805     0.16360485     1.4967609     -4.4374974    
     64400   1.0049824      0.12521109     1.5071904     -4.4474016    
     64500   0.98656105     0.10481155     1.4795636     -4.46083      
     64600   1.0006168      0.16410774     1.5006433     -4.4451187    
     64700   1.0041208      0.17256779     1.5058983     -4.4375308    
     64800   1.0007018      0.12097879     1.5007707     -4.4573716    
     64900   1.0027823      0.15662822     1.5038909     -4.4518167    
     65000   1.004738       0.0899013      1.506824      -4.4552308    
     65100   0.99228949     0.092321753    1.4881547     -4.4477569    
     65200   0.99589207     0.13424688     1.4935575     -4.4387564    
     65300   0.99653229     0.12748222     1.4945177     -4.4439499    
     65400   0.99767014     0.044779888    1.4962241     -4.4572382    
     65500   1.01024        0.095177903    1.5150754     -4.4650007    
     65600   0.99679577     0.11125521     1.4949128     -4.4551234    
     65700   0.98612488     0.1674718      1.4789095     -4.4418631    
     65800   1.0064207      0.12735269     1.5093475     -4.4526527    
     65900   0.99253023     0.10715969     1.4885157     -4.4530816    
     66000   1.0117259      0.17758713     1.5173038     -4.4345862    
     66100   0.99634735     0.18096989     1.4942403     -4.4392836    
     66200   0.99459769     0.073174023    1.4916163     -4.4597322    
     66300   1.014283       0.18782961     1.5211387     -4.4440404    
     66400   1.0056412      0.15596014     1.5081784     -4.4517073    
     66500   1.0014457      0.073716136    1.5018863     -4.4607081    
     66600   0.99985331     0.097091317    1.4994983     -4.462205     
     66700   0.98536301     0.16462615     1.4777669     -4.444227     
     66800   1.008736       0.1360222      1.5128198     -4.4577013    
     66900   0.99112613     0.16397264     1.48641       -4.4396128    
     67000   1.0125606      0.1012046      1.5185557     -4.4525425    
     67100   1.010723       0.17829243     1.5157997     -4.4403258    
     67200   0.99778367     0.10645912     1.4963944     -4.4456099    
     67300   0.99603564     0.095594504    1.4937728     -4.4517683    
     67400   1.0092299      0.081273017    1.5135605     -4.4541286    
     67500   1.0123568      0.17608515     1.51825       -4.4348364    
     67600   0.98823699     0.099645741    1.4820771     -4.4500944    
     67700   1.0030559      0.019860989    1.5043013     -4.4753408    
     67800   0.99105148     0.067189414    1.486298      -4.4536382    
     67900   1.0165036      0.070836522    1.5244691     -4.4573247    
     68000   0.9878279      0.17878084     1.4814635     -4.4408894    
     68100   1.0137686      0.11473993     1.5203673     -4.45066      
     68200   1.0134455      0.22692781     1.5198827     -4.4219026    
     68300   0.98756473     0.11149539     1.4810689     -4.4314358    
     68400   1.0115051      0.11259588     1.5169726     -4.4590008    
     68500   1.0034019      0.11656608     1.5048201     -4.4335756    
     68600   0.99378151     0.1426841      1.4903923     -4.4292075    
     68700   0.99631255     0.1096962      1.4941881     -4.4338456    
     68800   0.98813306     0.14413985     1.4819212     -4.4328797    
     68900   0.99650505     0.12514238     1.4944768     -4.4314283    
     69000   0.99848172     0.12949626     1.4974413     -4.4350268    
     69100   0.99886241     0.17308299     1.4980122     -4.434607     
     69200   0.98343045     0.096222919    1.4748686     -4.4509216    
     69300   1.003457       0.14413996     1.5049028     -4.4402718    
     69400   0.99578131     0.16218381     1.4933914     -4.4365408    
     69500   1.0043113      0.14306544     1.506184      -4.4408499    
     69600   0.98369393     0.12551305     1.4752637     -4.4422395    
     69700   0.97961684     0.15106915     1.4691493     -4.4403545    
     69800   1.0035552      0.1396231      1.50505       -4.4404398    
     69900   1.0005466      0.12028339     1.5005379     -4.4413999    
     70000   0.99982767     0.05662179     1.4994598     -4.4523753    
     70100   1.0167         0.073710105    1.5247636     -4.4614312    
     70200   0.99909282     0.11466133     1.4983577     -4.4497438    
     70300   0.99704271     0.1489925      1.4952832     -4.4411565    
     70400   1.0014843      0.15138162     1.5019443     -4.4318715    
     70500   1.0019715      0.18113887     1.502675      -4.4309658    
     70600   1.0062057      0.1869981      1.5090251     -4.4287211    
     70700   1.0004468      0.15626174     1.5003884     -4.4391393    
     70800   1.0036151      0.1759777      1.5051399     -4.4298482    
     70900   1.0169298      0.20772714     1.5251081     -4.4318126    
     71000   0.99659224     0.11588527     1.4946076     -4.4514869    
     71100   1.0049612      0.18873324     1.5071587     -4.4398839    
     71200   0.99279205     0.1923441      1.4889084     -4.441074     
     71300   0.99652269     0.13609716     1.4945033     -4.4545886    
     71400   1.003834       0.051648915    1.5054682     -4.4757805    
     71500   1.0101346      0.179142       1.5149173     -4.4457314    
     71600   0.9994909      0.1824238      1.4989548     -4.4430793    
     71700   1.0012449      0.21821016     1.5015852     -4.4385998    
     71800   0.99648892     0.16140882     1.4944526     -4.4458715    
     71900   1.0146642      0.22883788     1.5217105     -4.421299     
     72000   1.0076847      0.10842989     1.5112431     -4.4513504    
     72100   0.98627968     0.089140535    1.4791416     -4.4476951    
     72200   0.99745363     0.14026803     1.4958994     -4.4506993    
     72300   1.0049731      0.12751008     1.5071766     -4.4542716    
     72400   0.9807151      0.061987336    1.4707963     -4.4571371    
     72500   1.0076296      0.20447554     1.5111605     -4.4366431    
     72600   0.99242497     0.1011305      1.4883578     -4.447162     
     72700   0.99684734     0.20932771     1.4949902     -4.4300044    
     72800   0.99912469     0.062417879    1.4984055     -4.4614952    
     72900   1.0091645      0.1218017      1.5134624     -4.4449975    
     73000   0.99673583     0.12434805     1.4948229     -4.4423409    
     73100   1.0036571      0.11030184     1.5052029     -4.4459732    
     73200   0.9999607      0.11844416     1.4996593     -4.4485799    
     73300   0.98796613     0.11379479     1.4816708     -4.4590207    
     73400   1.0084514      0.13823446     1.5123929     -4.445339     
     73500   1.0122638      0.20294532     1.5181105     -4.4436629    
     73600   0.98635373     0.099452373    1.4792527     -4.4639697    
     73700   0.99580609     0.06680537     1.4934286     -4.4583267    
     73800   0.98311889     0.1336503      1.4744013     -4.4375047    
     73900   0.99441007     0.082845426    1.4913349     -4.4566245    
     74000   0.99635135     0.14472926     1.4942463     -4.4371239    
     74100   0.99048253     0.19727314     1.4854447     -4.4318735    
     74200   0.99672676     0.081982015    1.4948093     -4.461391     
     74300   1.0098496      0.18576736     1.5144898     -4.4325122    
     74400   1.0066465      0.12173011     1.5096861     -4.453174     
     74500   0.99449478     0.17968403     1.491462      -4.4279018    
     74600   1.0121403      0.17342569     1.5179253     -4.4386282    
     74700   1.0186399      0.09123227     1.5276728     -4.4502835    
     74800   0.9959233      0.15431494     1.4936044     -4.4354067    
     74900   0.99012419     0.1347122      1.4849073     -4.4391035    
     75000   0.98737681     0.063787753    1.480787      -4.4657184    
     75100   0.99783943     0.12482877     1.496478      -4.4430778    
     75200   0.99832941     0.10162412     1.4972128     -4.4526135    
     75300   1.0033208      0.10992447     1.5046985     -4.4509044    
     75400   0.98752183     0.1126434      1.4810045     -4.4473728    
     75500   1.0058062      0.11866086     1.5084259     -4.4418963    
     75600   0.99217548     0.18783846     1.4879837     -4.4244418    
     75700   1.0022234      0.068803222    1.5030527     -4.4514912    
     75800   0.99848467     0.21170381     1.4974457     -4.4207525    
     75900   0.99320763     0.15482608     1.4895316     -4.4375699    
     76000   1.0057665      0.13285648     1.5083663     -4.4514306    
     76100   1.0030235      0.1768857      1.5042526     -4.4344813    
     76200   1.0006958      0.15764237     1.5007618     -4.4517262    
     76300   1.00279        0.18039553     1.5039024     -4.449042     
     76400   0.97214837     0.21997328     1.4579487     -4.4326289    
     76500   1.0038784      0.15080242     1.5055348     -4.4503872    
     76600   0.98088434     0.10243685     1.4710501     -4.4538015    
     76700   1.0206103      0.10736796     1.5306279     -4.4537775    
     76800   1.0090807      0.17296535     1.5133368     -4.4443722    
     76900   0.97514321     0.096621353    1.4624401     -4.4532778    
     77000   0.99702089     0.19768312     1.4952504     -4.4355806    
     77100   1.0156013      0.15866113     1.5231158     -4.4332249    
     77200   1.0029367      0.044400514    1.5041224     -4.4640403    
     77300   0.99531284     0.13606521     1.4926888     -4.4460084    
     77400   1.0238988      0.11936645     1.5355597     -4.4499237    
     77500   1.0060871      0.11405899     1.5088472     -4.4522784    
     77600   1.0052424      0.14137825     1.5075804     -4.4485251    
     77700   1.0137299      0.16203626     1.5203092     -4.4458783    
     77800   1.0063508      0.18920888     1.5092427     -4.4379061    
     77900   1.0153679      0.16246241     1.5227657     -4.4431451    
     78000   0.99704825     0.15600507     1.4952915     -4.4419037    
     78100   0.98824692     0.1605543      1.4820919     -4.4430091    
     78200   0.99868171     0.11734435     1.4977412     -4.460038     
     78300   0.99052394     0.17896149     1.4855068     -4.4345145    
     78400   1.0092889      0.15655299     1.513649      -4.4610263    
     78500   1.0160575      0.1763631      1.5238        -4.4488047    
     78600   1.0133277      0.08903726     1.5197061     -4.4604759    
     78700   1.0080081      0.15003019     1.5117282     -4.4462738    
     78800   0.99778651     0.15623105     1.4963987     -4.4362738    
     78900   0.99715593     0.10342205     1.495453      -4.4504724    
     79000   0.99255387     0.15893294     1.4885512     -4.4402981    
     79100   1.0146451      0.1404219      1.5216818     -4.4557704    
     79200   0.9913278      0.18636195     1.4867124     -4.4390496    
     79300   0.98694209     0.13560645     1.4801351     -4.4375844    
     79400   1.0061052      0.14392345     1.5088743     -4.4328923    
     79500   0.98151134     0.060922144    1.4719905     -4.4457128    
     79600   1.0212498      0.078341556    1.531587      -4.4467051    
     79700   0.98573707     0.082520296    1.4783279     -4.4476498    
     79800   1.0163483      0.16071363     1.5242361     -4.4327686    
     79900   1.0114456      0.11175058     1.5168835     -4.4518553    
     80000   1.0099762      0.14437552     1.5146797     -4.4466761    
     80100   0.97751978     0.1164504      1.4660043     -4.4533304    
     80200   0.98732551     0.16000069     1.4807101     -4.4454023    
     80300   1.0031699      0.12557279     1.5044722     -4.4551069    
     80400   0.99898229     0.12926673     1.498192      -4.4461735    
     80500   1.0095985      0.13488188     1.5141133     -4.4517171    
     80600   1.0031345      0.065709571    1.5044191     -4.4564175    
     80700   0.97603379     0.074158426    1.4637757     -4.4577369    
     80800   1.0037106      0.083902111    1.505283      -4.4671387    
     80900   0.99358659     0.22235387     1.4900999     -4.4240952    
     81000   0.98579542     0.18450773     1.4784154     -4.434918     
     81100   1.0318614      0.2555584      1.5475014     -4.422879     
     81200   1.0031139      0.069016855    1.5043882     -4.4598324    
     81300   1.0080373      0.086037627    1.5117719     -4.4439781    
     81400   0.99214081     0.13859321     1.4879317     -4.4467544    
     81500   1.0067136      0.11777278     1.5097868     -4.440638     
     81600   0.98188605     0.10889829     1.4725524     -4.4435386    
     81700   0.99563379     0.15998356     1.4931702     -4.4370229    
     81800   0.99684787     0.12036969     1.4949909     -4.4495817    
     81900   0.99076237     0.14018519     1.4858644     -4.4464026    
     82000   0.98691622     0.082767474    1.4800963     -4.4538124    
     82100   0.99790289     0.15336944     1.4965732     -4.4396977    
     82200   0.9954223      0.14217592     1.492853      -4.455831     
     82300   0.97879945     0.12315427     1.4679234     -4.4549805    
     82400   1.0009748      0.15822075     1.5011802     -4.441869     
     82500   1.0049163      0.11042558     1.5070913     -4.4428097    
     82600   1.001009       0.2277698      1.5012315     -4.4419484    
     82700   1.0023644      0.10374691     1.5032642     -4.4732558    
     82800   1.0025252      0.13051418     1.5035054     -4.4656081    
     82900   0.99796467     0.16048046     1.4966658     -4.4529682    
     83000   0.98779041     0.14827097     1.4814073     -4.4445133    
     83100   1.0040686      0.1148151      1.50582       -4.4414216    
     83200   0.99788602     0.050277966    1.4965479     -4.4504259    
     83300   0.99416169     0.15669507     1.4909624     -4.4365936    
     83400   1.00396        0.14523277     1.5056572     -4.4491265    
     83500   1.0090969      0.094700217    1.5133611     -4.4556389    
     83600   1.0102423      0.13744615     1.5150788     -4.4426719    
     83700   0.99061969     0.18450486     1.4856504     -4.4323891    
     83800   1.005967       0.19764088     1.508667      -4.4392446    
     83900   1.0038035      0.13449609     1.5054224     -4.4562358    
     84000   1.0138077      0.1291834      1.520426      -4.4520207    
     84100   1.0045395      0.11864083     1.5065262     -4.4568021    
     84200   1.015516       0.2271143      1.5229879     -4.4425729    
     84300   0.98846515     0.19130095     1.4824192     -4.4384059    
     84400   0.99910387     0.17186106     1.4983743     -4.4380022    
     84500   0.98829535     0.11472629     1.4821646     -4.4556057    
     84600   1.0157057      0.1432641      1.5232723     -4.448906     
     84700   1.021853       0.26553261     1.5324916     -4.4252461    
     84800   1.0122745      0.092269873    1.5181266     -4.4533078    
     84900   1.0022045      0.19385597     1.5030244     -4.4291986    
     85000   1.0218557      0.16647665     1.5324956     -4.4432307    
     85100   0.99324841     0.092824473    1.4895928     -4.4421361    
     85200   0.99629033     0.13286109     1.4941548     -4.4435159    
     85300   0.99449101     0.14591481     1.4914563     -4.4467968    
     85400   1.0074752      0.11286668     1.5109289     -4.449462     
     85500   1.0092504      0.1568471      1.5135912     -4.4546576    
     85600   1.0192307      0.13439377     1.5285589     -4.4485048    
     85700   0.98429859     0.1081809      1.4761706     -4.443909     
     85800   1.0051159      0.22314959     1.5073907     -4.4293897    
     85900   0.98532958     0.15123958     1.4777168     -4.4392587    
     86000   0.98822218     0.13248472     1.4820548     -4.4390832    
     86100   0.99290714     0.081089496    1.489081      -4.4664102    
     86200   1.0130039      0.081735281    1.5192204     -4.4650425    
     86300   1.0107315      0.18604429     1.5158125     -4.4344805    
     86400   0.98376378     0.1360324      1.4753685     -4.4367485    
     86500   0.99851851     0.11013159     1.4974964     -4.449232     
     86600   1.0154481      0.18074859     1.5228861     -4.4289089    
     86700   1.0050401      0.10885836     1.5072769     -4.4485845    
     86800   0.99189901     0.10659885     1.4875691     -4.4450777    
     86900   0.98508658     0.19982464     1.4773523     -4.427594     
     87000   0.99374174     0.12641923     1.4903326     -4.4385361    
     87100   0.98226393     0.14761212     1.4731191     -4.4399685    
     87200   0.99588723     0.094464925    1.4935503     -4.462186     
     87300   0.9914123      0.20518428     1.4868391     -4.4267479    
     87400   0.99838222     0.1283963      1.497292      -4.4408663    
     87500   1.0165291      0.072335189    1.5245073     -4.4515245    
     87600   1.0027698      0.14512786     1.5038721     -4.4374251    
     87700   0.99387831     0.12148633     1.4905374     -4.4540659    
     87800   1.0007417      0.17199743     1.5008306     -4.4308703    
     87900   1.0163794      0.061411594    1.5242827     -4.4680089    
     88000   1.0034751      0.12919892     1.50493       -4.4522107    
     88100   1.0007341      0.098034222    1.5008192     -4.4579036    
     88200   0.97963183     0.089750579    1.4691717     -4.4642519    
     88300   1.0014879      0.10714783     1.5019496     -4.4507523    
     88400   0.98276442     0.078161035    1.4738698     -4.4495486    
     88500   0.99588636     0.076172114    1.493549      -4.451902     
     88600   0.98425399     0.099598247    1.4761037     -4.4502359    
     88700   1.0193491      0.11230319     1.5287364     -4.4532082    
     88800   1.0052578      0.16119901     1.5076035     -4.4512757    
     88900   1.0014843      0.15336291     1.5019443     -4.4409006    
     89000   0.98205007     0.16899764     1.4727984     -4.4275163    
     89100   0.9954848      0.063500373    1.4929467     -4.4553666    
     89200   1.0091958      0.11778841     1.5135093     -4.4436114    
     89300   0.98467999     0.20782651     1.4767426     -4.434026     
     89400   0.98006945     0.15442191     1.4698281     -4.4489747    
     89500   0.99562069     0.15799363     1.4931505     -4.4501911    
     89600   1.0033469      0.2554008      1.5047377     -4.4284625    
     89700   0.98759425     0.074633191    1.4811131     -4.4589923    
     89800   1.0053004      0.1573245      1.5076673     -4.4279875    
     89900   0.98490429     0.10889857     1.4770789     -4.4509877    
     90000   1.0119279      0.12510874     1.5176067     -4.4505127    
     90100   1.0161931      0.16666864     1.5240034     -4.4366964    
     90200   0.99834516     0.11613014     1.4972365     -4.4456784    
     90300   1.0062716      0.054864209    1.5091239     -4.4538542    
     90400   1.0106421      0.11146541     1.5156784     -4.4441654    
     90500   1.0034179      0.11911767     1.5048442     -4.4352183    
     90600   1.0139869      0.17617115     1.5206946     -4.4389322    
     90700   1.0064245      0.21813883     1.5093532     -4.4312383    
     90800   0.99511051     0.14424659     1.4923854     -4.4482326    
     90900   0.99449736     0.077138213    1.4914659     -4.4606576    
     91000   1.0144808      0.075984051    1.5214355     -4.4671067    
     91100   0.99703462     0.11991326     1.495271      -4.4522889    
     91200   0.99177123     0.18442423     1.4873774     -4.441245     
     91300   0.99007716     0.072370547    1.4848368     -4.4612063    
     91400   1.0045806      0.13208019     1.5065879     -4.4418735    
     91500   1.0074984      0.15697592     1.5109637     -4.4492018    
     91600   1.0106677      0.09521853     1.5157168     -4.4560713    
     91700   1.0044763      0.088017728    1.5064315     -4.4596918    
     91800   0.98109966     0.16321449     1.4713731     -4.4357909    
     91900   0.98717099     0.065713957    1.4804784     -4.4588747    
     92000   0.98727713     0.13214911     1.4806375     -4.4533721    
     92100   1.0101467      0.15526996     1.5149355     -4.4485221    
     92200   1.0062536      0.18240805     1.5090968     -4.4450808    
     92300   0.99706825     0.19071334     1.4953215     -4.4312679    
     92400   0.98504259     0.16251699     1.4772864     -4.4394967    
     92500   1.0043903      0.17247661     1.5063024     -4.436873     
     92600   0.99031949     0.21380199     1.4852002     -4.4205488    
     92700   1.002106       0.070752059    1.5028767     -4.4517056    
     92800   0.9988046      0.1029092      1.4979255     -4.4537185    
     92900   0.99793062     0.15203193     1.4966148     -4.4415865    
     93000   0.98268879     0.12344172     1.4737563     -4.4610943    
     93100   0.98831216     0.051719797    1.4821898     -4.4751323    
     93200   0.99990292     0.14383871     1.4995727     -4.4531568    
     93300   1.0056347      0.11908052     1.5081688     -4.4591922    
     93400   1.0170656      0.16927699     1.5253118     -4.4537406    
     93500   0.99066723     0.17403972     1.4857217     -4.4457103    
     93600   1.0084538      0.052439997    1.5123965     -4.477085     
     93700   1.0009889      0.15229288     1.5012013     -4.4536861    
     93800   0.99420933     0.19343882     1.4910339     -4.4400289    
     93900   1.0028889      0.18499066     1.5040509     -4.4523677    
     94000   0.99530114     0.14960006     1.4926713     -4.4504913    
     94100   1.0112437      0.094670502    1.5165806     -4.4575461    
     94200   1.008716       0.15930361     1.5127897     -4.4376311    
     94300   0.98751807     0.12778431     1.4809989     -4.4496299    
     94400   1.0053164      0.17219939     1.5076913     -4.4400311    
     94500   1.0052746      0.15112307     1.5076287     -4.4417406    
     94600   0.99210169     0.1521897      1.487873      -4.4409488    
     94700   0.99815442     0.03770032     1.4969504     -4.4716236    
     94800   1.000955       0.18138185     1.5011505     -4.4464713    
     94900   1.0031605      0.14643525     1.5044581     -4.4564421    
     95000   1.0127997      0.10506059     1.5189142     -4.4676189    
     95100   0.9929302      0.15838292     1.4891156     -4.4498162    
     95200   0.98596876     0.061776834    1.4786753     -4.4709981    
     95300   1.0036862      0.13530566     1.5052465     -4.4468015    
     95400   1.0054711      0.10023106     1.5079233     -4.4563945    
     95500   1.0033743      0.075936754    1.5047788     -4.4625138    
     95600   0.98483638     0.14838406     1.4769771     -4.4386275    
     95700   1.0139852      0.18657761     1.5206921     -4.4414727    
     95800   1.0111528      0.16766424     1.5164443     -4.4536905    
     95900   0.9839213      0.096879087    1.4756047     -4.4809791    
     96000   1.0157822      0.2269528      1.5233871     -4.4378225    
     96100   1.0228227      0.11997406     1.5339459     -4.4740145    
     96200   1.0042206      0.14333393     1.5060479     -4.4581247    
     96300   1.0082359      0.22062746     1.5120698     -4.4336864    
     96400   0.9951271      0.13607402     1.4924103     -4.4497498    
     96500   0.99147697     0.2043847      1.4869361     -4.4291222    
     96600   1.0074988      0.2117774      1.5109644     -4.4390393    
     96700   0.98872223     0.13654811     1.4828048     -4.4539186    
     96800   1.016642       0.17397714     1.5246765     -4.4392241    
     96900   0.99780836     0.12570106     1.4964314     -4.4456857    
     97000   1.0010177      0.051587524    1.5012446     -4.4583018    
     97100   1.0075965      0.056739826    1.5111108     -4.462698     
     97200   1.0235973      0.095683456    1.5351075     -4.4456462    
     97300   1.0094645      0.07631732     1.5139124     -4.4528241    
     97400   0.99422597     0.12599842     1.4910588     -4.4467217    
     97500   0.99306935     0.060790575    1.4893242     -4.4504056    
     97600   0.97606695     0.043435984    1.4638254     -4.4610335    
     97700   1.0144485      0.11400199     1.521387      -4.4453456    
     97800   1.0130247      0.15496665     1.5192517     -4.4388938    
     97900   0.98967406     0.074360042    1.4842323     -4.452483     
     98000   1.0062779      0.13056891     1.5091334     -4.4416788    
     98100   0.99098375     0.1371941      1.4861964     -4.4392359    
     98200   1.0062461      0.17072523     1.5090857     -4.4449145    
     98300   0.98555882     0.10790767     1.4780606     -4.4512572    
     98400   0.99955945     0.16086311     1.4990576     -4.4571338    
     98500   0.99432755     0.19196832     1.4912112     -4.4534001    
     98600   1.000026       0.16445517     1.4997572     -4.4503485    
     98700   0.99629047     0.11049101     1.494155      -4.4607241    
     98800   1.0057189      0.19609525     1.508295      -4.4488885    
     98900   1.0192829      0.15587177     1.5286372     -4.4566842    
     99000   1.0148955      0.14404877     1.5220573     -4.4500113    
     99100   1.0119434      0.12887439     1.5176299     -4.45137      
     99200   1.0009108      0.19592152     1.5010841     -4.4345226    
     99300   0.98134932     0.1014363      1.4717475     -4.4637158    
     99400   0.99756676     0.15873294     1.4960691     -4.446704     
     99500   0.99863493     0.094287251    1.497671      -4.4666222    
     99600   1.0066512      0.088010632    1.5096932     -4.4633854    
     99700   0.98942192     0.079004919    1.4838541     -4.4590765    
     99800   1.0073775      0.13911954     1.5107825     -4.4516236    
     99900   0.99966757     0.11397632     1.4992197     -4.4566819    
    100000   1.0063059      0.23605181     1.5091754     -4.4368866    
Loop time of 252.832 on 1 procs for 50000 steps with 5324 atoms

Performance: 85432.393 tau/day, 197.760 timesteps/s, 1.053 Matom-step/s
99.9% CPU use with 1 MPI tasks x 1 OpenMP threads

MPI task timing breakdown:
Section |  min time  |  avg time  |  max time  |%varavg| %total
---------------------------------------------------------------
Pair    | 154.83     | 154.83     | 154.83     |   0.0 | 61.24
Neigh   | 76.178     | 76.178     | 76.178     |   0.0 | 30.13
Comm    | 2.7401     | 2.7401     | 2.7401     |   0.0 |  1.08
Output  | 0.094595   | 0.094595   | 0.094595   |   0.0 |  0.04
Modify  | 17.731     | 17.731     | 17.731     |   0.0 |  7.01
Other   |            | 1.258      |            |       |  0.50

Nlocal:           5324 ave        5324 max        5324 min
Histogram: 1 0 0 0 0 0 0 0 0 0
Nghost:           7216 ave        7216 max        7216 min
Histogram: 1 0 0 0 0 0 0 0 0 0
Neighs:         265136 ave      265136 max      265136 min
Histogram: 1 0 0 0 0 0 0 0 0 0

Total # of neighbors = 265136
Ave neighs/atom = 49.80015
Neighbor list builds = 6625
Dangerous builds = 0






unfix           thermostat
unfix 		integrator
fix		4 all viscosity 100 x y 20
compute chunk_1 all chunk/atom bin/1d y lower 0.05 units reduced
fix velo all ave/chunk 20 50 1000 chunk_1 vx file velocity_profile.txt
# do not put any mode like mode vector in this kind of fixes


variable	dVx equal f_velo[1][3]-f_velo[11][3]
thermo          1000
thermo_style	custom step temp epair etotal press
fix integrator all nve
run		20000
Generated 0 of 0 mixed pair_coeff terms from geometric mixing rule
WARNING: Fix viscosity comes before fix ave/chunk (src/EXTRA-FIX/fix_viscosity.cpp:130)
Per MPI rank memory allocation (min/avg/max) = 4.325 | 4.325 | 4.325 Mbytes
   Step          Temp          E_pair         TotEng         Press     
    100000   1.0063059     -4.4368866     -2.9277112      0.23605181   
    101000   1.0079977     -4.439494      -2.9277814      0.21306605   
    102000   1.0015773     -4.4298394     -2.9277556      0.16216884   
    103000   1.0129289     -4.4468771     -2.9277691      0.16294115   
    104000   1.0151528     -4.4500085     -2.9275653      0.13976716   
    105000   1.0279855     -4.4697573     -2.9280688      0.089234123  
    106000   0.99777776    -4.4240938     -2.9277083      0.21826292   
    107000   1.0169644     -4.4529073     -2.9277473      0.14977595   
    108000   1.0050075     -4.4349725     -2.9277444      0.17863299   
    109000   1.0157445     -4.4512199     -2.9278892      0.14611942   
    110000   1.0083079     -4.4399974     -2.9278196      0.19811209   
    111000   1.0129295     -4.4469626     -2.9278538      0.14852019   
    112000   1.0143597     -4.4490626     -2.9278087      0.14993768   
    113000   1.0121209     -4.4456745     -2.9277783      0.17037432   
    114000   1.0173813     -4.4535794     -2.9277941      0.11140555   
    115000   1.0139342     -4.4482227     -2.927607       0.090462833  
    116000   1.0031537     -4.4324662     -2.9280182      0.21270389   
    117000   1.0006954     -4.4286316     -2.9278704      0.20557835   
    118000   1.0059423     -4.436297      -2.927667       0.15742837   
    119000   1.0194987     -4.4569641     -2.9280032      0.1478102    
    120000   1.0191602     -4.45623       -2.9277768      0.079150381  
Loop time of 99.2646 on 1 procs for 20000 steps with 5324 atoms

Performance: 87040.123 tau/day, 201.482 timesteps/s, 1.073 Matom-step/s
99.8% CPU use with 1 MPI tasks x 1 OpenMP threads

MPI task timing breakdown:
Section |  min time  |  avg time  |  max time  |%varavg| %total
---------------------------------------------------------------
Pair    | 63.623     | 63.623     | 63.623     |   0.0 | 64.09
Neigh   | 32.938     | 32.938     | 32.938     |   0.0 | 33.18
Comm    | 1.1754     | 1.1754     | 1.1754     |   0.0 |  1.18
Output  | 0.00097948 | 0.00097948 | 0.00097948 |   0.0 |  0.00
Modify  | 1.0282     | 1.0282     | 1.0282     |   0.0 |  1.04
Other   |            | 0.4991     |            |       |  0.50

Nlocal:           5324 ave        5324 max        5324 min
Histogram: 1 0 0 0 0 0 0 0 0 0
Nghost:           7158 ave        7158 max        7158 min
Histogram: 1 0 0 0 0 0 0 0 0 0
Neighs:         265299 ave      265299 max      265299 min
Histogram: 1 0 0 0 0 0 0 0 0 0

Total # of neighbors = 265299
Ave neighs/atom = 49.830766
Neighbor list builds = 2832
Dangerous builds = 0





unfix		4
fix		4 all viscosity 100 x y 20
variable	visc equal -(f_4/(2*(step*0.005  - 120000*0.005)*20*20+1.0e-10))/(v_dVx/(10.0))
fix		vave all ave/time 1000 1 1000 v_visc ave running start 26000
thermo_style	custom step temp f_4 v_dVx v_visc f_vave
run	        50000
Generated 0 of 0 mixed pair_coeff terms from geometric mixing rule
Per MPI rank memory allocation (min/avg/max) = 4.325 | 4.325 | 4.325 Mbytes
   Step          Temp           f_4           v_dVx          v_visc         f_vave    
    120000   1.0191602      0             -0.075540665    0              0            
    121000   1.0126        -60.170369     -0.07723077    -1.947746      -0.973873     
    122000   1.0139598     -116.48498     -0.11711491    -1.2432766     -1.0636742    
    123000   1.0133252     -173.34339     -0.10249011    -1.4094318     -1.1501136    
    124000   1.015324      -230.00376     -0.14082928    -1.0207561     -1.1242421    
    125000   1.0173314     -284.67397     -0.11288763    -1.2608732     -1.147014     
    126000   1.0046129     -339.13305     -0.12608751    -1.1206933     -1.1432539    
    127000   1.0047101     -393.80932     -0.083442734   -1.6855414     -1.2110398    
    128000   1.0157585     -447.26344     -0.12043575    -1.1605344     -1.2054281    
    129000   1.0120246     -503.55587     -0.096472408   -1.4499133     -1.2298766    
    130000   1.0142405     -557.09114     -0.22044912    -0.63176837    -1.1755031    
    131000   1.0122438     -610.21752     -0.14810296    -0.93641477    -1.1555791    
    132000   1.0094524     -666.46661     -0.15832342    -0.87698467    -1.1341488    
    133000   1.0071165     -724.1152      -0.17859195    -0.77972677    -1.1088329    
    134000   1.0041678     -779.36912     -0.081599911   -1.705554      -1.1486143    
    135000   0.99754285    -836.98992     -0.056304903   -2.4775519     -1.2316729    
    136000   1.0207213     -896.35642     -0.024389356   -5.7424923     -1.4970152    
    137000   1.002772      -955.48839     -0.084793107   -1.6571276     -1.5059104    
    138000   1.0075586     -1011.0241     -0.16847288    -0.83348732    -1.4705197    
    139000   1.0108775     -1067.8355     -0.10567426    -1.3296015     -1.4634738    
    140000   1.0036583     -1125.5779     -0.13847046    -1.0160812     -1.4421694    
    141000   1.0041633     -1182.7269     -0.1458311     -0.96550609    -1.4205029    
    142000   1.0150286     -1236.1646     -0.1414132     -0.99335314    -1.4019311    
    143000   1.0029125     -1292.1401     -0.14163511    -0.99163272    -1.3848354    
    144000   1.0144464     -1347.6693     -0.17833975    -0.78716167    -1.3609284    
    145000   1.0118383     -1403.4982     -0.19166311    -0.73227352    -1.3367494    
    146000   1.012074      -1456.9886     -0.097233799   -1.4408062     -1.3406033    
    147000   1.0138668     -1513.4297     -0.079919476   -1.7534197     -1.3553468    
    148000   1.0176927     -1569.0564     -0.11902301    -1.1770356     -1.3491981    
    149000   1.0078584     -1624.8518     -0.12512971    -1.1194258     -1.341539     
    150000   1.0054469     -1680.6903     -0.11259474    -1.2439082     -1.3383897    
    151000   1.0137742     -1736.0864     -0.031006385   -4.5154236     -1.437672     
    152000   1.0017221     -1792.9373     -0.11549138    -1.2128457     -1.4308591    
    153000   1.0048581     -1849.742      -0.046072622   -3.0415453     -1.4782322    
    154000   1.0172345     -1904.3856     -0.214743      -0.65207411    -1.4546277    
    155000   1.0086171     -1958.9158     -0.21679635    -0.64541012    -1.4321494    
    156000   1.0151412     -2013.4872     -0.15467594    -0.90398995    -1.4178748    
    157000   1.0097853     -2066.5112     -0.14261037    -0.97909524    -1.406328     
    158000   1.0158119     -2123.9087     -0.1495289     -0.9344738     -1.3942292    
    159000   1.0123419     -2180.4605     -0.18194554    -0.76821396    -1.3785788    
    160000   1.0203219     -2232.1148     -0.14566771    -0.9577083     -1.3683136    
    161000   0.99859463    -2288.3664     -0.13565152    -1.028625      -1.3602258    
    162000   0.99930188    -2345.812      -0.15352663    -0.90949477    -1.3497437    
    163000   1.0189964     -2399.3242     -0.11082357    -1.2587178     -1.3476749    
    164000   1.0190563     -2456.0616     -0.093331204   -1.4952015     -1.3509533    
    165000   1.0105223     -2512.0248     -0.16108117    -0.86637647    -1.340419     
    166000   1.0047114     -2566.9791     -0.1707495     -0.81704332    -1.3292834    
    167000   1.00652       -2621.0453     -0.14249514    -0.97840038    -1.3219733    
    168000   1.0132755     -2677.0158     -0.11746858    -1.1869378     -1.3192175    
    169000   1.0153453     -2732.6201     -0.14125999    -0.98697017    -1.3125725    
    170000   1.0157324     -2789.4796     -0.098354942   -1.4180679     -1.3146411    
Loop time of 248.552 on 1 procs for 50000 steps with 5324 atoms

Performance: 86903.336 tau/day, 201.165 timesteps/s, 1.071 Matom-step/s
99.8% CPU use with 1 MPI tasks x 1 OpenMP threads

MPI task timing breakdown:
Section |  min time  |  avg time  |  max time  |%varavg| %total
---------------------------------------------------------------
Pair    | 159.09     | 159.09     | 159.09     |   0.0 | 64.01
Neigh   | 82.473     | 82.473     | 82.473     |   0.0 | 33.18
Comm    | 2.9529     | 2.9529     | 2.9529     |   0.0 |  1.19
Output  | 0.0061613  | 0.0061613  | 0.0061613  |   0.0 |  0.00
Modify  | 2.7724     | 2.7724     | 2.7724     |   0.0 |  1.12
Other   |            | 1.255      |            |       |  0.50

Nlocal:           5324 ave        5324 max        5324 min
Histogram: 1 0 0 0 0 0 0 0 0 0
Nghost:           7166 ave        7166 max        7166 min
Histogram: 1 0 0 0 0 0 0 0 0 0
Neighs:         265225 ave      265225 max      265225 min
Histogram: 1 0 0 0 0 0 0 0 0 0

Total # of neighbors = 265225
Ave neighs/atom = 49.816867
Neighbor list builds = 7086
Dangerous builds = 0
Total wall time: 0:13:01
