LAMMPS (10 Sep 2025 - Development - patch_10Sep2025-660-g792d014343)
OMP_NUM_THREADS environment is not set. Defaulting to 1 thread.
  using 1 OpenMP thread(s) per MPI task
# Defining the essential variables

units lj
dimension 3
atom_style atomic
boundary p p p




# Creating  a large box

region my_box block 0 30 0 30 0 30
create_box 1 my_box
Created orthogonal box = (0 0 0) to (30 30 30)
  1 by 1 by 1 MPI processor grid





# Filling up the box with the particles

create_atoms 1 random 5000 87910 my_box
Created 5000 atoms
  using lattice units in orthogonal box = (0 0 0) to (30 30 30)
  create_atoms CPU = 0.001 seconds




# Defining the particle's properties and switching off the interaction

mass 1 1.0

pair_style lj/cut 2.5
pair_style none




# Creating initial velocity distribution for a given temperature

velocity all create 7.0 12345 mom yes rot no  # Assign initial velocities




# Setting up Brownian dynamics through the Langevin thermostat at a particular temperature

fix my_thermo_stat all langevin 7  7  0.1 89080




# Applying an integrator to update the position and the velocity

fix integrator all nve




# Setting up time achieved by each simulation step

timestep 0.005




# Specifying the parameters to print on the terminal

thermo 100
thermo_style custom step temp ke pe press






# Apply another compute to calculate the mean squared displacement

compute msd_all all msd
fix msd_output all ave/time 100 1 100 c_msd_all file msd.dat mode vector





# Running the simulation

run 40000
WARNING: No pairwise cutoff or binsize set. Atom sorting therefore disabled. (src/atom.cpp:2486)
WARNING: Communication cutoff is 0.0. No ghost atoms will be generated. Energies and forces may be wrong and atoms may get lost. (src/comm_brick.cpp:188)
Per MPI rank memory allocation (min/avg/max) = 2.672 | 2.672 | 2.672 Mbytes
   Step          Temp          KinEng         PotEng         Press     
         0   7              10.4979        0              1.296037     
       100   7.1295837      10.692237      0              1.3200292    
       200   6.9387697      10.406073      0              1.2847004    
       300   7.0134268      10.518036      0              1.298523     
       400   7.0037565      10.503534      0              1.2967326    
       500   7.0814322      10.620024      0              1.3111141    
       600   6.9562568      10.432298      0              1.2879381    
       700   6.9683114      10.450377      0              1.29017      
       800   6.9453812      10.415988      0              1.2859245    
       900   7.0113825      10.51497       0              1.2981445    
      1000   6.9662279      10.447252      0              1.2897842    
      1100   7.044687       10.564917      0              1.3043108    
      1200   7.0819413      10.620787      0              1.3112083    
      1300   6.9287127      10.39099       0              1.2828383    
      1400   6.9066413      10.35789       0              1.2787518    
      1500   6.9008923      10.349268      0              1.2776874    
      1600   6.9701035      10.453064      0              1.2905018    
      1700   6.9547432      10.430028      0              1.2876578    
      1800   7.0401263      10.558077      0              1.3034663    
      1900   7.01363        10.518341      0              1.2985606    
      2000   6.9837117      10.473472      0              1.2930213    
      2100   7.0187062      10.525954      0              1.2995005    
      2200   6.8915071      10.335193      0              1.2759498    
      2300   7.1037653      10.653517      0              1.315249     
      2400   7.0798315      10.617623      0              1.3108177    
      2500   7.0184503      10.52557       0              1.2994531    
      2600   6.9423245      10.411404      0              1.2853585    
      2700   7.048082       10.570009      0              1.3049393    
      2800   6.9787807      10.466077      0              1.2921083    
      2900   6.9341497      10.399144      0              1.283845     
      3000   6.9473409      10.418927      0              1.2862873    
      3100   7.0211261      10.529583      0              1.2999485    
      3200   7.0834309      10.623021      0              1.3114841    
      3300   7.0126569      10.516882      0              1.2983804    
      3400   6.9927814      10.487074      0              1.2947005    
      3500   6.996982       10.493374      0              1.2954783    
      3600   7.0865245      10.627661      0              1.3120569    
      3700   7.026703       10.537946      0              1.300981     
      3800   7.096203       10.642176      0              1.3138488    
      3900   6.9867105      10.47797       0              1.2935765    
      4000   7.0260306      10.536938      0              1.3008566    
      4100   6.8632592      10.29283       0              1.2707197    
      4200   7.0334632      10.548085      0              1.3022327    
      4300   6.9619106      10.440777      0              1.2889849    
      4400   6.9486992      10.420964      0              1.2865388    
      4500   6.9591008      10.436563      0              1.2884646    
      4600   6.9464083      10.417528      0              1.2861146    
      4700   6.9702492      10.453283      0              1.2905287    
      4800   7.0514114      10.575002      0              1.3055558    
      4900   6.9995566      10.497235      0              1.2959549    
      5000   7.122594       10.681754      0              1.3187351    
      5100   7.0057166      10.506473      0              1.2970955    
      5200   6.9432767      10.412832      0              1.2855348    
      5300   6.8798937      10.317777      0              1.2737996    
      5400   7.0100455      10.512965      0              1.2978969    
      5500   7.0649208      10.595262      0              1.308057     
      5600   6.8739709      10.308894      0              1.272703     
      5700   7.0763272      10.612368      0              1.3101689    
      5800   6.9277728      10.389581      0              1.2826643    
      5900   7.1034782      10.653086      0              1.3151958    
      6000   6.9501339      10.423116      0              1.2868044    
      6100   7.1460972      10.717002      0              1.3230867    
      6200   6.8372935      10.253889      0              1.2659122    
      6300   6.9123071      10.366387      0              1.2798009    
      6400   6.9902934      10.483343      0              1.2942399    
      6500   7.0930123      10.637391      0              1.3132581    
      6600   6.9227787      10.382091      0              1.2817397    
      6700   6.8409119      10.259316      0              1.2665822    
      6800   6.8936091      10.338345      0              1.2763389    
      6900   7.0113733      10.514957      0              1.2981428    
      7000   7.1418242      10.710594      0              1.3222955    
      7100   7.0106769      10.513912      0              1.2980138    
      7200   7.0184658      10.525593      0              1.2994559    
      7300   6.8337088      10.248513      0              1.2652485    
      7400   6.7654592      10.146159      0              1.2526122    
      7500   7.0248234      10.535128      0              1.300633     
      7600   7.0160142      10.521917      0              1.299002     
      7700   6.9806058      10.468814      0              1.2924462    
      7800   6.9357687      10.401572      0              1.2841447    
      7900   7.0891955      10.631667      0              1.3125514    
      8000   7.0627511      10.592008      0              1.3076553    
      8100   7.1995117      10.797108      0              1.3329763    
      8200   7.1458621      10.716649      0              1.3230431    
      8300   7.047639       10.569344      0              1.3048573    
      8400   7.1427542      10.711988      0              1.3224677    
      8500   7.0357119      10.551457      0              1.302649     
      8600   7.171737       10.755454      0              1.3278338    
      8700   7.1369274      10.70325       0              1.3213889    
      8800   7.0062782      10.507315      0              1.2971994    
      8900   6.924614       10.384844      0              1.2820794    
      9000   7.0906581      10.63386       0              1.3128222    
      9100   6.9524144      10.426536      0              1.2872267    
      9200   7.0478888      10.569719      0              1.3049036    
      9300   7.0517015      10.575437      0              1.3056095    
      9400   7.0644319      10.594528      0              1.3079665    
      9500   6.840566       10.258797      0              1.2665181    
      9600   7.0017492      10.500523      0              1.2963609    
      9700   6.9961604      10.492142      0              1.2953261    
      9800   7.0607307      10.588978      0              1.3072812    
      9900   7.0068756      10.508211      0              1.29731      
     10000   7.1048945      10.65521       0              1.3154581    
     10100   7.0347657      10.550038      0              1.3024738    
     10200   7.0091369      10.511603      0              1.2977287    
     10300   6.8945178      10.339708      0              1.2765072    
     10400   6.9909288      10.484296      0              1.2943575    
     10500   6.9110113      10.364444      0              1.2795609    
     10600   7.0834823      10.623098      0              1.3114936    
     10700   6.8612504      10.289817      0              1.2703478    
     10800   7.0875894      10.629258      0              1.312254     
     10900   7.0081992      10.510196      0              1.2975551    
     11000   7.0509182      10.574262      0              1.3054645    
     11100   6.9418647      10.410714      0              1.2852734    
     11200   7.0639952      10.593874      0              1.3078856    
     11300   6.9188054      10.376133      0              1.281004     
     11400   7.0850143      10.625396      0              1.3117773    
     11500   7.0182094      10.525209      0              1.2994085    
     11600   6.8972336      10.343781      0              1.27701      
     11700   6.9272457      10.38879       0              1.2825667    
     11800   7.1408757      10.709171      0              1.3221199    
     11900   7.0351692      10.550643      0              1.3025485    
     12000   6.970476       10.453623      0              1.2905707    
     12100   6.9397567      10.407553      0              1.2848831    
     12200   7.045846       10.566655      0              1.3045253    
     12300   6.9899787      10.482871      0              1.2941816    
     12400   7.1392672      10.706759      0              1.3218221    
     12500   6.9681528      10.450139      0              1.2901406    
     12600   7.0222541      10.531275      0              1.3001573    
     12700   6.9816377      10.470362      0              1.2926373    
     12800   7.0580905      10.585018      0              1.3067924    
     12900   7.0392705      10.556794      0              1.3033079    
     13000   7.047492       10.569124      0              1.3048301    
     13100   6.9618733      10.440721      0              1.288978     
     13200   7.0194646      10.527091      0              1.2996409    
     13300   7.013652       10.518374      0              1.2985647    
     13400   6.9724855      10.456637      0              1.2909428    
     13500   7.153811       10.72857       0              1.3245149    
     13600   6.949854       10.422696      0              1.2867526    
     13700   6.9252051      10.38573       0              1.2821889    
     13800   7.2063505      10.807364      0              1.3342424    
     13900   7.0323665      10.54644       0              1.3020296    
     14000   6.961845       10.440679      0              1.2889727    
     14100   7.0458479      10.566658      0              1.3045257    
     14200   7.0232785      10.532811      0              1.300347     
     14300   6.8885535      10.330764      0              1.2754029    
     14400   7.1785756      10.76571       0              1.3291       
     14500   6.929147       10.391642      0              1.2829187    
     14600   7.0219921      10.530882      0              1.3001088    
     14700   7.0659617      10.596823      0              1.3082497    
     14800   7.0598021      10.587585      0              1.3071093    
     14900   6.8999576      10.347866      0              1.2775144    
     15000   6.9543142      10.429385      0              1.2875784    
     15100   7.0992285      10.646713      0              1.314409     
     15200   7.0638084      10.593593      0              1.307851     
     15300   6.9148996      10.370275      0              1.2802809    
     15400   7.0140091      10.518909      0              1.2986308    
     15500   7.0919263      10.635762      0              1.313057     
     15600   6.9788736      10.466217      0              1.2921255    
     15700   6.9562569      10.432298      0              1.2879381    
     15800   6.992558       10.486739      0              1.2946592    
     15900   6.9797913      10.467593      0              1.2922954    
     16000   6.9596227      10.437346      0              1.2885612    
     16100   6.9611814      10.439684      0              1.2888498    
     16200   7.0683901      10.600465      0              1.3086993    
     16300   6.9422262      10.411257      0              1.2853403    
     16400   7.0254845      10.536119      0              1.3007554    
     16500   6.917143       10.373639      0              1.2806962    
     16600   6.8845921      10.324823      0              1.2746695    
     16700   7.0786824      10.6159        0              1.3106049    
     16800   6.9617263      10.440501      0              1.2889507    
     16900   7.0007119      10.498968      0              1.2961688    
     17000   6.9831073      10.472566      0              1.2929094    
     17100   7.0452813      10.565808      0              1.3044208    
     17200   6.9333188      10.397898      0              1.2836911    
     17300   6.9532196      10.427743      0              1.2873757    
     17400   6.9788229      10.466141      0              1.2921161    
     17500   7.067528       10.599172      0              1.3085397    
     17600   7.0401646      10.558135      0              1.3034734    
     17700   7.0947013      10.639923      0              1.3135708    
     17800   7.0120566      10.515981      0              1.2982693    
     17900   7.001066       10.499499      0              1.2962344    
     18000   6.9722695      10.456313      0              1.2909028    
     18100   6.8974692      10.344135      0              1.2770537    
     18200   7.021102       10.529547      0              1.299944     
     18300   7.1185429      10.675679      0              1.317985     
     18400   7.0082464      10.510267      0              1.2975638    
     18500   6.8698152      10.302662      0              1.2719336    
     18600   6.9795569      10.467242      0              1.292252     
     18700   6.9039935      10.353919      0              1.2782616    
     18800   7.0151715      10.520653      0              1.298846     
     18900   6.9634195      10.44304       0              1.2892642    
     19000   7.0441428      10.564101      0              1.30421      
     19100   6.8753778      10.311004      0              1.2729635    
     19200   7.1366707      10.702865      0              1.3213414    
     19300   6.9704214      10.453541      0              1.2905606    
     19400   7.115601       10.671267      0              1.3174403    
     19500   6.9935349      10.488204      0              1.29484      
     19600   6.9860892      10.477038      0              1.2934615    
     19700   6.9754573      10.461093      0              1.291493     
     19800   7.0346972      10.549935      0              1.3024612    
     19900   6.9193519      10.376952      0              1.2811052    
     20000   6.9599045      10.437769      0              1.2886134    
     20100   6.9461806      10.417187      0              1.2860725    
     20200   7.0173842      10.523971      0              1.2992557    
     20300   7.0841948      10.624167      0              1.3116255    
     20400   6.9828999      10.472255      0              1.292871     
     20500   7.0586715      10.58589       0              1.3069       
     20600   6.9908627      10.484197      0              1.2943453    
     20700   6.9439828      10.413891      0              1.2856656    
     20800   6.9138296      10.36867       0              1.2800827    
     20900   7.0172912      10.523832      0              1.2992385    
     21000   6.9254151      10.386045      0              1.2822278    
     21100   7.0223675      10.531444      0              1.3001783    
     21200   6.9410655      10.409516      0              1.2851254    
     21300   6.9562364      10.432268      0              1.2879343    
     21400   7.0050608      10.50549       0              1.296974     
     21500   6.8776788      10.314455      0              1.2733895    
     21600   6.9435456      10.413235      0              1.2855846    
     21700   7.0729753      10.607341      0              1.3095483    
     21800   7.0182762      10.525309      0              1.2994208    
     21900   7.1195171      10.67714       0              1.3181654    
     22000   7.0262158      10.537216      0              1.3008908    
     22100   7.1028927      10.652208      0              1.3150874    
     22200   7.0537872      10.578565      0              1.3059956    
     22300   6.892094       10.336073      0              1.2760584    
     22400   7.0969831      10.643346      0              1.3139933    
     22500   6.9271453      10.38864       0              1.2825481    
     22600   7.1293636      10.691907      0              1.3199885    
     22700   6.9866826      10.477928      0              1.2935713    
     22800   6.9893907      10.481989      0              1.2940727    
     22900   6.9807795      10.469075      0              1.2924784    
     23000   6.9382638      10.405314      0              1.2846067    
     23100   7.14705        10.718431      0              1.3232631    
     23200   6.996665       10.492899      0              1.2954196    
     23300   7.0090154      10.51142       0              1.2977062    
     23400   6.9714761      10.455123      0              1.2907559    
     23500   6.9797939      10.467597      0              1.2922959    
     23600   7.0086236      10.510833      0              1.2976337    
     23700   6.8727859      10.307117      0              1.2724836    
     23800   7.0685533      10.600709      0              1.3087295    
     23900   6.9393674      10.406969      0              1.284811     
     24000   6.950118       10.423092      0              1.2868015    
     24100   7.0997486      10.647493      0              1.3145053    
     24200   7.0555198      10.581163      0              1.3063164    
     24300   7.1156007      10.671266      0              1.3174403    
     24400   6.8697607      10.30258       0              1.2719235    
     24500   6.9991646      10.496647      0              1.2958824    
     24600   6.9010572      10.349515      0              1.277718     
     24700   6.9850204      10.475435      0              1.2932636    
     24800   7.0252245      10.535729      0              1.3007073    
     24900   6.9799439      10.467822      0              1.2923237    
     25000   7.0772966      10.613822      0              1.3103484    
     25100   7.034736       10.549994      0              1.3024684    
     25200   6.8992576      10.346817      0              1.2773848    
     25300   6.9395578      10.407255      0              1.2848463    
     25400   7.0006487      10.498873      0              1.2961571    
     25500   7.0292167      10.541716      0              1.3014464    
     25600   6.9443519      10.414444      0              1.2857339    
     25700   7.0465184      10.567664      0              1.3046498    
     25800   7.0747606      10.610019      0              1.3098788    
     25900   7.1152603      10.670756      0              1.3173773    
     26000   7.0979461      10.64479       0              1.3141716    
     26100   6.9555815      10.431286      0              1.287813     
     26200   6.9993392      10.496909      0              1.2959147    
     26300   7.0880656      10.629972      0              1.3123422    
     26400   7.0864762      10.627588      0              1.3120479    
     26500   6.9275177      10.389198      0              1.2826171    
     26600   6.9876101      10.479319      0              1.2937431    
     26700   7.0513915      10.574972      0              1.3055521    
     26800   6.8094324      10.212106      0              1.2607538    
     26900   6.9700413      10.452971      0              1.2904902    
     27000   6.9304427      10.393585      0              1.2831586    
     27100   7.0653367      10.595885      0              1.308134     
     27200   6.9240194      10.383952      0              1.2819694    
     27300   7.2745869      10.909698      0              1.3468763    
     27400   6.8378667      10.254749      0              1.2660184    
     27500   6.9989947      10.496392      0              1.2958509    
     27600   7.0235456      10.533211      0              1.3003965    
     27700   6.9819273      10.470796      0              1.2926909    
     27800   6.9245744      10.384784      0              1.2820721    
     27900   7.0305786      10.543759      0              1.3016986    
     28000   6.9940129      10.488921      0              1.2949285    
     28100   7.0408336      10.559138      0              1.3035973    
     28200   7.0205867      10.528774      0              1.2998486    
     28300   7.0055547      10.50623       0              1.2970655    
     28400   7.0413352      10.55989       0              1.3036902    
     28500   7.0260136      10.536913      0              1.3008534    
     28600   7.0861202      10.627054      0              1.311982     
     28700   7.0398248      10.557625      0              1.3034105    
     28800   6.9491232      10.4216        0              1.2866173    
     28900   7.0246851      10.53492       0              1.3006074    
     29000   6.986546       10.477723      0              1.2935461    
     29100   7.0847272      10.624965      0              1.3117241    
     29200   7.0745972      10.609773      0              1.3098486    
     29300   6.887046       10.328503      0              1.2751238    
     29400   6.9230703      10.382529      0              1.2817936    
     29500   7.1512021      10.724658      0              1.3240318    
     29600   7.0576119      10.584301      0              1.3067038    
     29700   6.9697463      10.452529      0              1.2904356    
     29800   6.8233315      10.23295       0              1.2633272    
     29900   7.0969145      10.643243      0              1.3139806    
     30000   6.905564       10.356274      0              1.2785524    
     30100   6.8845672      10.324785      0              1.2746649    
     30200   6.8906997      10.333982      0              1.2758003    
     30300   7.0635964      10.593276      0              1.3078118    
     30400   7.1391322      10.706557      0              1.3217971    
     30500   7.0177515      10.524522      0              1.2993237    
     30600   6.9309886      10.394404      0              1.2832597    
     30700   6.8581423      10.285156      0              1.2697723    
     30800   6.9817072      10.470466      0              1.2926502    
     30900   6.9465134      10.417686      0              1.2861341    
     31000   6.9833282      10.472897      0              1.2929503    
     31100   6.9883954      10.480497      0              1.2938885    
     31200   6.9299567      10.392856      0              1.2830686    
     31300   6.9083043      10.360384      0              1.2790597    
     31400   6.9492086      10.421728      0              1.2866331    
     31500   6.9893438      10.481919      0              1.2940641    
     31600   7.1371331      10.703559      0              1.321427     
     31700   7.0781617      10.615119      0              1.3105085    
     31800   7.0928087      10.637085      0              1.3132204    
     31900   7.0751576      10.610614      0              1.3099523    
     32000   7.1461803      10.717127      0              1.3231021    
     32100   7.0546335      10.579834      0              1.3061523    
     32200   7.1109022      10.66422       0              1.3165704    
     32300   7.0253298      10.535887      0              1.3007268    
     32400   7.0313729      10.54495       0              1.3018457    
     32500   7.098351       10.645397      0              1.3142465    
     32600   7.0674981      10.599127      0              1.3085342    
     32700   6.924572       10.384781      0              1.2820717    
     32800   7.0422534      10.561267      0              1.3038602    
     32900   7.0329191      10.547269      0              1.3021319    
     33000   6.9160032      10.37193       0              1.2804852    
     33100   7.0191886      10.526677      0              1.2995898    
     33200   7.0052425      10.505762      0              1.2970077    
     33300   6.9786249      10.465844      0              1.2920795    
     33400   6.9650975      10.445557      0              1.2895749    
     33500   7.0338951      10.548733      0              1.3023127    
     33600   6.9530131      10.427434      0              1.2873375    
     33700   6.8789647      10.316383      0              1.2736276    
     33800   7.0572041      10.583689      0              1.3066283    
     33900   7.1200049      10.677871      0              1.3182557    
     34000   6.9701408      10.45312       0              1.2905087    
     34100   7.0744901      10.609613      0              1.3098287    
     34200   6.9836947      10.473447      0              1.2930181    
     34300   6.8752509      10.310814      0              1.27294      
     34400   7.0030623      10.502493      0              1.296604     
     34500   6.9178314      10.374672      0              1.2808237    
     34600   7.0187649      10.526042      0              1.2995113    
     34700   6.994042       10.488965      0              1.2949339    
     34800   6.9473329      10.418915      0              1.2862858    
     34900   7.0329437      10.547306      0              1.3021365    
     35000   7.0323904      10.546476      0              1.3020341    
     35100   6.8785254      10.315725      0              1.2735462    
     35200   7.0474995      10.569135      0              1.3048315    
     35300   7.0922694      10.636276      0              1.3131205    
     35400   6.8479801      10.269916      0              1.2678908    
     35500   7.0364727      10.552598      0              1.3027899    
     35600   7.0222225      10.531227      0              1.3001515    
     35700   6.9921193      10.486081      0              1.2945779    
     35800   6.9899602      10.482843      0              1.2941782    
     35900   6.9535034      10.428169      0              1.2874283    
     36000   7.0745791      10.609746      0              1.3098452    
     36100   6.914387       10.369506      0              1.2801859    
     36200   7.0683287      10.600373      0              1.308688     
     36300   7.1471242      10.718542      0              1.3232768    
     36400   7.0890742      10.631485      0              1.312529     
     36500   6.9533832      10.427989      0              1.287406     
     36600   7.0723076      10.60634       0              1.3094247    
     36700   7.0119923      10.515885      0              1.2982574    
     36800   7.1177013      10.674417      0              1.3178292    
     36900   7.1570841      10.733479      0              1.3251209    
     37000   6.9003099      10.348395      0              1.2775796    
     37100   7.0867751      10.628037      0              1.3121033    
     37200   6.9137125      10.368495      0              1.2800611    
     37300   6.9509553      10.424348      0              1.2869565    
     37400   7.0690613      10.601471      0              1.3088236    
     37500   6.9866098      10.477819      0              1.2935579    
     37600   7.0347581      10.550027      0              1.3024724    
     37700   7.0689635      10.601325      0              1.3088055    
     37800   7.072624       10.606814      0              1.3094832    
     37900   6.9685322      10.450708      0              1.2902108    
     38000   7.057515       10.584155      0              1.3066858    
     38100   7.1896871      10.782374      0              1.3311572    
     38200   6.9855026      10.476158      0              1.2933529    
     38300   7.1308928      10.6942        0              1.3202716    
     38400   6.9425882      10.4118        0              1.2854073    
     38500   6.9689067      10.451269      0              1.2902802    
     38600   6.9595695      10.437266      0              1.2885514    
     38700   7.0211539      10.529625      0              1.2999536    
     38800   6.8733159      10.307912      0              1.2725817    
     38900   7.0576792      10.584402      0              1.3067162    
     39000   6.9614085      10.440024      0              1.2888919    
     39100   6.9312003      10.394721      0              1.2832989    
     39200   6.8533422      10.277957      0              1.2688836    
     39300   6.8325849      10.246828      0              1.2650404    
     39400   7.1212597      10.679753      0              1.318488     
     39500   6.9697951      10.452602      0              1.2904447    
     39600   6.947254       10.418797      0              1.2862712    
     39700   6.9692052      10.451717      0              1.2903354    
     39800   6.9372498      10.403793      0              1.2844189    
     39900   6.9615789      10.44028       0              1.2889235    
     40000   6.9900032      10.482908      0              1.2941862    
Loop time of 7.48601 on 1 procs for 40000 steps with 5000 atoms

Performance: 2308304.344 tau/day, 5343.297 timesteps/s, 26.716 Matom-step/s
100.0% CPU use with 1 MPI tasks x 1 OpenMP threads

MPI task timing breakdown:
Section |  min time  |  avg time  |  max time  |%varavg| %total
---------------------------------------------------------------
Pair    | 0          | 0          | 0          |   0.0 |  0.00
Neigh   | 0.058276   | 0.058276   | 0.058276   |   0.0 |  0.78
Comm    | 0.32928    | 0.32928    | 0.32928    |   0.0 |  4.40
Output  | 0.0067144  | 0.0067144  | 0.0067144  |   0.0 |  0.09
Modify  | 6.6398     | 6.6398     | 6.6398     |   0.0 | 88.70
Other   |            | 0.452      |            |       |  6.04

Nlocal:           5000 ave        5000 max        5000 min
Histogram: 1 0 0 0 0 0 0 0 0 0
Nghost:              0 ave           0 max           0 min
Histogram: 1 0 0 0 0 0 0 0 0 0
Neighs:              0 ave           0 max           0 min
Histogram: 1 0 0 0 0 0 0 0 0 0

Total # of neighbors = 0
Ave neighs/atom = 0
Neighbor list builds = 13336
Dangerous builds = 0
Total wall time: 0:00:07
