LAMMPS (10 Sep 2025 - Development - patch_10Sep2025-660-g792d014343)
OMP_NUM_THREADS environment is not set. Defaulting to 1 thread.
  using 1 OpenMP thread(s) per MPI task
# Defining the essential variables

units lj
dimension 3
atom_style atomic
boundary p p p




# Creating  a large box

region my_box block 0 30 0 30 0 30
create_box 1 my_box
Created orthogonal box = (0 0 0) to (30 30 30)
  1 by 1 by 1 MPI processor grid





# Filling up the box with the particles

create_atoms 1 random 5000 87910 my_box
Created 5000 atoms
  using lattice units in orthogonal box = (0 0 0) to (30 30 30)
  create_atoms CPU = 0.001 seconds




# Defining the particle's properties and switching off the interaction

mass 1 1.0

pair_style lj/cut 2.5
pair_style none




# Creating initial velocity distribution for a given temperature

velocity all create 3.0 12345 mom yes rot no  # Assign initial velocities




# Setting up Brownian dynamics through the Langevin thermostat at a particular temperature

fix my_thermo_stat all langevin 3  3  0.1 89080




# Applying an integrator to update the position and the velocity

fix integrator all nve




# Setting up time achieved by each simulation step

timestep 0.005




# Specifying the parameters to print on the terminal

thermo 100
thermo_style custom step temp ke pe press






# Apply another compute to calculate the mean squared displacement

compute msd_all all msd
fix msd_output all ave/time 100 1 100 c_msd_all file msd.dat mode vector





# Running the simulation

run 40000
WARNING: No pairwise cutoff or binsize set. Atom sorting therefore disabled. (src/atom.cpp:2486)
WARNING: Communication cutoff is 0.0. No ghost atoms will be generated. Energies and forces may be wrong and atoms may get lost. (src/comm_brick.cpp:188)
Per MPI rank memory allocation (min/avg/max) = 2.672 | 2.672 | 2.672 Mbytes
   Step          Temp          KinEng         PotEng         Press     
         0   3              4.4991         0              0.55544444   
       100   3.0555359      4.5823871      0              0.56572681   
       200   2.9737585      4.4597456      0              0.55058587   
       300   3.0057543      4.5077298      0              0.55650985   
       400   3.0016099      4.5015144      0              0.55574252   
       500   3.0348995      4.5514388      0              0.56190603   
       600   2.9812529      4.470985       0              0.55197346   
       700   2.9864192      4.4787328      0              0.55292998   
       800   2.9765919      4.4639949      0              0.55111049   
       900   3.0048782      4.5064159      0              0.55634764   
      1000   2.9855262      4.4773937      0              0.55276466   
      1100   3.0191516      4.5278216      0              0.55899032   
      1200   3.0351177      4.551766       0              0.56194642   
      1300   2.9694483      4.4532816      0              0.54978785   
      1400   2.9599891      4.4390957      0              0.5480365    
      1500   2.9575253      4.4354006      0              0.54758033   
      1600   2.9871872      4.4798847      0              0.55307218   
      1700   2.9806042      4.4700121      0              0.55185335   
      1800   3.017197       4.5248903      0              0.55862843   
      1900   3.0058414      4.5078604      0              0.55652598   
      2000   2.9930193      4.488631       0              0.55415198   
      2100   3.008017       4.511123       0              0.55692877   
      2200   2.953503       4.4293685      0              0.54683562   
      2300   3.0444708      4.5657929      0              0.56367814   
      2400   3.0342135      4.55041        0              0.56177901   
      2500   3.0079073      4.5109585      0              0.55690846   
      2600   2.9752819      4.4620303      0              0.55086794   
      2700   3.0206066      4.5300037      0              0.55925971   
      2800   2.990906       4.4854618      0              0.55376071   
      2900   2.9717784      4.4567761      0              0.55021928   
      3000   2.9774318      4.4652545      0              0.55126599   
      3100   3.009054       4.5126783      0              0.55712078   
      3200   3.0357561      4.5527234      0              0.56206462   
      3300   3.0054244      4.507235       0              0.55644876   
      3400   2.9969063      4.4944604      0              0.55487165   
      3500   2.9987066      4.4971603      0              0.55520497   
      3600   3.0370819      4.5547118      0              0.5623101    
      3700   3.0114441      4.5162628      0              0.5575633    
      3800   3.0412299      4.5609324      0              0.56307808   
      3900   2.9943045      4.4905585      0              0.55438994   
      4000   3.011156       4.5158306      0              0.55750995   
      4100   2.9413968      4.4112128      0              0.54459417   
      4200   3.0143414      4.5206077      0              0.55809972   
      4300   2.983676       4.4746189      0              0.55242208   
      4400   2.9780139      4.4661275      0              0.55137377   
      4500   2.9824718      4.4728129      0              0.55219913   
      4600   2.9770321      4.4646551      0              0.55119198   
      4700   2.9872497      4.4799783      0              0.55308374   
      4800   3.0220334      4.5321436      0              0.5595239    
      4900   2.99981        4.498815       0              0.55540926   
      5000   3.0525403      4.5778947      0              0.56517218   
      5100   3.00245        4.5027743      0              0.55589806   
      5200   2.97569        4.4626423      0              0.55094349   
      5300   2.9485259      4.4219042      0              0.5459141    
      5400   3.0043052      4.5055565      0              0.55624154   
      5500   3.0278232      4.5408264      0              0.56059586   
      5600   2.9459875      4.4180975      0              0.54544414   
      5700   3.0327117      4.5481577      0              0.56150095   
      5800   2.9690455      4.4526775      0              0.54971327   
      5900   3.0443478      4.5656084      0              0.56365536   
      6000   2.9786288      4.4670496      0              0.55148761   
      6100   3.0626131      4.5930009      0              0.56703714   
      6200   2.9302687      4.3945239      0              0.54253381   
      6300   2.9624173      4.4427373      0              0.54848608   
      6400   2.99584        4.4928613      0              0.55467424   
      6500   3.0398624      4.5588817      0              0.5628249    
      6600   2.9669051      4.4494676      0              0.54931699   
      6700   2.9318194      4.3968495      0              0.54282093   
      6800   2.9544039      4.4307195      0              0.54700241   
      6900   3.0048743      4.5064099      0              0.55634691   
      7000   3.0607818      4.5902545      0              0.56669808   
      7100   3.0045758      4.5059624      0              0.55629165   
      7200   3.0079139      4.5109685      0              0.55690969   
      7300   2.9287323      4.3922199      0              0.54224937   
      7400   2.8994825      4.3483539      0              0.53683382   
      7500   3.0106386      4.5150547      0              0.55741416   
      7600   3.0068632      4.5093928      0              0.55671516   
      7700   2.9916882      4.4866348      0              0.55390553   
      7800   2.9724723      4.4578167      0              0.55034774   
      7900   3.0382267      4.5564285      0              0.56252204   
      8000   3.0268933      4.5394319      0              0.5604237    
      8100   3.085505       4.6273319      0              0.57127554   
      8200   3.0625123      4.5928497      0              0.56701848   
      8300   3.0204167      4.529719       0              0.55922456   
      8400   3.0611804      4.5908522      0              0.56677188   
      8500   3.0153051      4.5220531      0              0.55827815   
      8600   3.0736016      4.6094803      0              0.56907164   
      8700   3.0586832      4.5871071      0              0.56630952   
      8800   3.0026907      4.5031352      0              0.55594261   
      8900   2.9676917      4.4506472      0              0.54946262   
      9000   3.0388535      4.5573686      0              0.5626381    
      9100   2.9796062      4.4685154      0              0.55166857   
      9200   3.0205238      4.5298795      0              0.55924438   
      9300   3.0221578      4.53233        0              0.55954691   
      9400   3.0276137      4.5405122      0              0.56055706   
      9500   2.9316711      4.3966272      0              0.54279348   
      9600   3.0007497      4.5002243      0              0.55558325   
      9700   2.9983545      4.4966322      0              0.55513978   
      9800   3.0260274      4.5381334      0              0.56026338   
      9900   3.0029467      4.5035191      0              0.55599002   
     10000   3.0449548      4.5665187      0              0.56376774   
     10100   3.0148996      4.5214449      0              0.55820307   
     10200   3.0039158      4.5049726      0              0.55616945   
     10300   2.9547933      4.4313036      0              0.54707451   
     10400   2.9961123      4.4932697      0              0.55472465   
     10500   2.961862       4.4419044      0              0.54838326   
     10600   3.0357781      4.5527565      0              0.5620687    
     10700   2.9405359      4.4099217      0              0.54443478   
     10800   3.0375383      4.5553962      0              0.56239459   
     10900   3.0035139      4.5043698      0              0.55609504   
     11000   3.0218221      4.5318266      0              0.55948476   
     11100   2.9750849      4.4617348      0              0.55083145   
     11200   3.0274265      4.5402315      0              0.56052241   
     11300   2.9652023      4.4469139      0              0.54900172   
     11400   3.0364347      4.5537411      0              0.56219026   
     11500   3.007804       4.5108037      0              0.55688934   
     11600   2.9559572      4.4330491      0              0.54729001   
     11700   2.9688196      4.4523387      0              0.54967145   
     11800   3.0603753      4.5896448      0              0.56662282   
     11900   3.0150725      4.5217042      0              0.55823509   
     12000   2.9873469      4.4801241      0              0.55310174   
     12100   2.9741814      4.4603799      0              0.55066418   
     12200   3.0196483      4.5285665      0              0.55908229   
     12300   2.9957051      4.492659       0              0.55464926   
     12400   3.059686       4.588611       0              0.56649519   
     12500   2.9863512      4.4786309      0              0.5529174    
     12600   3.0095375      4.5134034      0              0.55721029   
     12700   2.9921304      4.487298       0              0.55398741   
     12800   3.0248959      4.5364364      0              0.56005388   
     12900   3.0168302      4.5243403      0              0.55856053   
     13000   3.0203537      4.5296245      0              0.5592129    
     13100   2.98366        4.4745949      0              0.55241912   
     13200   3.008342       4.5116105      0              0.55698895   
     13300   3.0058509      4.5078745      0              0.55652772   
     13400   2.9882081      4.4814157      0              0.55326119   
     13500   3.065919       4.5979587      0              0.56764923   
     13600   2.9785088      4.4668697      0              0.5514654    
     13700   2.9679451      4.4510272      0              0.54950953   
     13800   3.0884359      4.6317273      0              0.57181819   
     13900   3.0138713      4.5199029      0              0.5580127    
     14000   2.9836479      4.4745767      0              0.55241688   
     14100   3.0196491      4.5285677      0              0.55908244   
     14200   3.0099765      4.5140617      0              0.55729157   
     14300   2.9522372      4.4274702      0              0.54660125   
     14400   3.0765324      4.6138757      0              0.56961428   
     14500   2.9696344      4.4535608      0              0.54982232   
     14600   3.0094252      4.513235       0              0.5571895    
     14700   3.0282693      4.5414955      0              0.56067845   
     14800   3.0256295      4.5375365      0              0.5601897    
     14900   2.9571247      4.4347999      0              0.54750616   
     15000   2.9804204      4.4697364      0              0.55181931   
     15100   3.0425265      4.562877       0              0.56331815   
     15200   3.0273465      4.5401115      0              0.56050759   
     15300   2.9635284      4.4444035      0              0.54869179   
     15400   3.0060039      4.508104       0              0.55655606   
     15500   3.039397       4.5581837      0              0.56273872   
     15600   2.9909458      4.4855215      0              0.55376808   
     15700   2.9812529      4.470985       0              0.55197346   
     15800   2.9968106      4.4943168      0              0.55485393   
     15900   2.9913391      4.4861113      0              0.5538409    
     16000   2.9826954      4.4731483      0              0.55224054   
     16100   2.9833635      4.4741502      0              0.55236422   
     16200   3.02931        4.5430562      0              0.56087114   
     16300   2.9752398      4.4619671      0              0.55086014   
     16400   3.0109219      4.5154796      0              0.55746662   
     16500   2.9644899      4.4458455      0              0.54886981   
     16600   2.9505395      4.4249241      0              0.54628692   
     16700   3.033721       4.5496714      0              0.56168783   
     16800   2.983597       4.4745004      0              0.55240746   
     16900   3.0003051      4.4995575      0              0.55550093   
     17000   2.9927603      4.4882426      0              0.55410402   
     17100   3.0194063      4.5282036      0              0.55903748   
     17200   2.9714223      4.4562421      0              0.55015334   
     17300   2.9799513      4.4690329      0              0.55173246   
     17400   2.9909241      4.4854889      0              0.55376406   
     17500   3.0289406      4.5425022      0              0.56080274   
     17600   3.0172134      4.5249149      0              0.55863147   
     17700   3.0405863      4.5599672      0              0.56295891   
     17800   3.0051671      4.5068492      0              0.55640113   
     17900   3.0004569      4.4997852      0              0.55552903   
     18000   2.9881155      4.4812768      0              0.55324405   
     18100   2.9560582      4.4332005      0              0.54730871   
     18200   3.0090437      4.5126629      0              0.55711887   
     18300   3.0508041      4.5752909      0              0.56485073   
     18400   3.0035342      4.5044002      0              0.55609879   
     18500   2.9442065      4.4154265      0              0.54511439   
     18600   2.9912387      4.4859606      0              0.5538223    
     18700   2.9588544      4.4373939      0              0.54782641   
     18800   3.0065021      4.5088512      0              0.55664829   
     18900   2.9843226      4.4755887      0              0.55254181   
     19000   3.0189184      4.5274719      0              0.55894714   
     19100   2.9465905      4.4190017      0              0.54555577   
     19200   3.0585731      4.5869422      0              0.56628915   
     19300   2.9873235      4.480089       0              0.55309741   
     19400   3.0495433      4.5734         0              0.56461729   
     19500   2.9972293      4.4949447      0              0.55493145   
     19600   2.9940382      4.4901591      0              0.55434063   
     19700   2.9894817      4.4833257      0              0.553497     
     19800   3.0148702      4.5214009      0              0.55819764   
     19900   2.9654365      4.4472652      0              0.54904508   
     20000   2.9828162      4.4733295      0              0.5522629    
     20100   2.9769345      4.4645087      0              0.55117392   
     20200   3.0074504      4.5102733      0              0.55682387   
     20300   3.0360835      4.5532144      0              0.56212523   
     20400   2.9926714      4.4881092      0              0.55408756   
     20500   3.0251449      4.5368099      0              0.56009998   
     20600   2.996084       4.4932272      0              0.55471941   
     20700   2.9759926      4.4630961      0              0.55099952   
     20800   2.9630698      4.4437158      0              0.54860689   
     20900   3.0074105      4.5102136      0              0.55681649   
     21000   2.968035       4.4511622      0              0.54952619   
     21100   3.0095861      4.5134762      0              0.55721928   
     21200   2.9747424      4.4612211      0              0.55076804   
     21300   2.9812442      4.4709719      0              0.55197184   
     21400   3.0021689      4.5023527      0              0.55584601   
     21500   2.9475766      4.4204807      0              0.54573836   
     21600   2.9758053      4.4628151      0              0.55096483   
     21700   3.0312751      4.5460033      0              0.56123498   
     21800   3.0078327      4.5108467      0              0.55689465   
     21900   3.0512216      4.575917       0              0.56492803   
     22000   3.0112353      4.5159496      0              0.55752465   
     22100   3.0440969      4.5652321      0              0.5636089    
     22200   3.0230517      4.5336706      0              0.55971242   
     22300   2.9537546      4.4297457      0              0.54688219   
     22400   3.0415642      4.5614338      0              0.56313997   
     22500   2.9687766      4.4522742      0              0.54966348   
     22600   3.0554415      4.5822457      0              0.56570934   
     22700   2.9942925      4.4905405      0              0.55438772   
     22800   2.9954532      4.4922811      0              0.55460261   
     22900   2.9917626      4.4867464      0              0.55391931   
     23000   2.9735416      4.4594204      0              0.55054573   
     23100   3.0630214      4.5936132      0              0.56711274   
     23200   2.9985707      4.4969565      0              0.55517981   
     23300   3.0038638      4.5048945      0              0.55615981   
     23400   2.9877755      4.4807668      0              0.55318109   
     23500   2.9913402      4.486113       0              0.55384111   
     23600   3.0036958      4.5046427      0              0.55612872   
     23700   2.9454797      4.4173359      0              0.54535011   
     23800   3.02938        4.5431611      0              0.56088409   
     23900   2.9740146      4.4601297      0              0.55063329   
     24000   2.978622       4.4670394      0              0.55148635   
     24100   3.0427494      4.5632113      0              0.56335942   
     24200   3.0237942      4.5347842      0              0.5598499    
     24300   3.0495431      4.5733999      0              0.56461727   
     24400   2.9441831      4.4153915      0              0.54511006   
     24500   2.999642       4.4985631      0              0.55537816   
     24600   2.9575959      4.4355066      0              0.54759341   
     24700   2.9935802      4.4894722      0              0.55425583   
     24800   3.0108105      4.5153125      0              0.55744599   
     24900   2.9914045      4.4862094      0              0.55385301   
     25000   3.0331271      4.5487807      0              0.56157787   
     25100   3.0148869      4.5214258      0              0.55820072   
     25200   2.9568247      4.43435        0              0.54745061   
     25300   2.9740962      4.4602521      0              0.5506484    
     25400   3.000278       4.4995169      0              0.55549592   
     25500   3.0125214      4.5178784      0              0.55776276   
     25600   2.9761508      4.4633333      0              0.55102881   
     25700   3.0199364      4.5289987      0              0.55913564   
     25800   3.0320403      4.5471508      0              0.56137664   
     25900   3.0493973      4.5731811      0              0.56459026   
     26000   3.0419769      4.5620528      0              0.56321639   
     26100   2.9809635      4.470551       0              0.55191988   
     26200   2.9997168      4.4986753      0              0.55539201   
     26300   3.0377424      4.5557023      0              0.56243238   
     26400   3.0370612      4.5546807      0              0.56230626   
     26500   2.9689362      4.4525136      0              0.54969303   
     26600   2.99469        4.4911366      0              0.55446131   
     26700   3.0220249      4.5321308      0              0.55952232   
     26800   2.9183282      4.3766168      0              0.54032306   
     26900   2.9871606      4.4798447      0              0.55306724   
     27000   2.9701897      4.4543935      0              0.54992513   
     27100   3.0280014      4.5410938      0              0.56062886   
     27200   2.9674369      4.4502651      0              0.54941544   
     27300   3.1176801      4.6755849      0              0.5772327    
     27400   2.9305143      4.3948923      0              0.5425793    
     27500   2.9995692      4.4984539      0              0.55536467   
     27600   3.010091       4.5142335      0              0.55731277   
     27700   2.9922546      4.4874842      0              0.55401039   
     27800   2.9676748      4.4506218      0              0.54945948   
     27900   3.0131051      4.5187537      0              0.55787083   
     28000   2.9974341      4.4952519      0              0.55496937   
     28100   3.0175001      4.5253449      0              0.55868455   
     28200   3.0088229      4.5123316      0              0.55707798   
     28300   3.0023806      4.5026702      0              0.55588521   
     28400   3.0177151      4.5256673      0              0.55872436   
     28500   3.0111487      4.5158197      0              0.5575086    
     28600   3.0369087      4.5544519      0              0.56227802   
     28700   3.0170678      4.5246965      0              0.55860451   
     28800   2.9781957      4.4664         0              0.55140741   
     28900   3.0105793      4.5149658      0              0.55740319   
     29000   2.994234       4.4904528      0              0.55437688   
     29100   3.0363116      4.5535566      0              0.56216748   
     29200   3.0319702      4.5470457      0              0.56136367   
     29300   2.9515911      4.4265012      0              0.54648163   
     29400   2.9670301      4.4496551      0              0.54934014   
     29500   3.0648009      4.5962819      0              0.56744221   
     29600   3.0246908      4.5361288      0              0.5600159    
     29700   2.9870341      4.4796551      0              0.55304384   
     29800   2.9242849      4.3855501      0              0.54142594   
     29900   3.0415348      4.5613897      0              0.56313453   
     30000   2.9595274      4.4384033      0              0.54795103   
     30100   2.9505288      4.4249081      0              0.54628495   
     30200   2.953157       4.4288496      0              0.54677155   
     30300   3.0272556      4.5399752      0              0.56049077   
     30400   3.0596281      4.5885243      0              0.56648448   
     30500   3.0076078      4.5105094      0              0.55685301   
     30600   2.9704237      4.4547444      0              0.54996845   
     30700   2.9392038      4.407924       0              0.54418815   
     30800   2.9921602      4.4873427      0              0.55399292   
     30900   2.9770772      4.4647227      0              0.55120033   
     31000   2.992855       4.4883846      0              0.55412155   
     31100   2.9950266      4.4916414      0              0.55452363   
     31200   2.9699814      4.4540812      0              0.54988656   
     31300   2.9607018      4.4401645      0              0.54816846   
     31400   2.9782323      4.4664549      0              0.55141419   
     31500   2.9954331      4.492251       0              0.55459889   
     31600   3.0587713      4.5872394      0              0.56632585   
     31700   3.0334979      4.5493368      0              0.56164652   
     31800   3.0397751      4.5587508      0              0.56280874   
     31900   3.0322104      4.5474059      0              0.56140814   
     32000   3.0626487      4.5930543      0              0.56704374   
     32100   3.0234144      4.5342145      0              0.55977957   
     32200   3.0475295      4.57038        0              0.56424445   
     32300   3.0108556      4.5153802      0              0.55745434   
     32400   3.0134455      4.5192642      0              0.55793386   
     32500   3.0421504      4.562313       0              0.56324852   
     32600   3.0289278      4.5424829      0              0.56080036   
     32700   2.9676737      4.4506202      0              0.54945929   
     32800   3.0181086      4.5262575      0              0.55879722   
     32900   3.0141082      4.5202581      0              0.55805655   
     33000   2.9640014      4.4451128      0              0.54877936   
     33100   3.0082237      4.511433       0              0.55696704   
     33200   3.0022468      4.5024695      0              0.55586044   
     33300   2.9908392      4.4853616      0              0.55374835   
     33400   2.9850418      4.4766672      0              0.55267496   
     33500   3.0145265      4.5208854      0              0.55813399   
     33600   2.9798628      4.4689002      0              0.55171607   
     33700   2.9481277      4.4213071      0              0.54584039   
     33800   3.0245161      4.5358667      0              0.55998355   
     33900   3.0514307      4.5762306      0              0.56496673   
     34000   2.9872032      4.4799086      0              0.55307514   
     34100   3.0319243      4.5469769      0              0.56135518   
     34200   2.993012       4.4886201      0              0.55415063   
     34300   2.9465361      4.4189202      0              0.5455457    
     34400   3.0013124      4.5010683      0              0.55568744   
     34500   2.9647849      4.4462879      0              0.54892443   
     34600   3.0080421      4.5111608      0              0.55693343   
     34700   2.9974466      4.4952706      0              0.55497168   
     34800   2.9774284      4.4652494      0              0.55126535   
     34900   3.0141187      4.5202739      0              0.5580585    
     35000   3.0138816      4.5199182      0              0.55801459   
     35100   2.9479395      4.4210248      0              0.54580553   
     35200   3.0203569      4.5296293      0              0.55921349   
     35300   3.039544       4.5584042      0              0.56276595   
     35400   2.9348486      4.4013925      0              0.54338179   
     35500   3.0156312      4.5225421      0              0.55833853   
     35600   3.0095239      4.513383       0              0.55720778   
     35700   2.9966226      4.4940348      0              0.55481912   
     35800   2.9956972      4.4926471      0              0.55464779   
     35900   2.9800729      4.4692153      0              0.55175497   
     36000   3.0319625      4.5470341      0              0.56136224   
     36100   2.9633087      4.4440741      0              0.54865112   
     36200   3.0292837      4.5430168      0              0.56086627   
     36300   3.0630532      4.5936609      0              0.56711863   
     36400   3.0381747      4.5563506      0              0.56251241   
     36500   2.9800214      4.469138       0              0.55174544   
     36600   3.030989       4.5455742      0              0.56118199   
     36700   3.0051396      4.5068078      0              0.55639602   
     36800   3.0504434      4.57475        0              0.56478395   
     36900   3.0673218      4.6000624      0              0.56790894   
     37000   2.9572757      4.4350263      0              0.54753411   
     37100   3.0371893      4.5548728      0              0.56232998   
     37200   2.9630197      4.4436406      0              0.5485976    
     37300   2.9789808      4.4675776      0              0.55155279   
     37400   3.0295977      4.5434877      0              0.5609244    
     37500   2.9942613      4.4904937      0              0.55438194   
     37600   3.0148963      4.52144        0              0.55820247   
     37700   3.0295558      4.5434248      0              0.56091665   
     37800   3.0311246      4.5457775      0              0.5612071    
     37900   2.9865138      4.4788747      0              0.5529475    
     38000   3.0246493      4.5360665      0              0.56000822   
     38100   3.0812945      4.6210173      0              0.57049596   
     38200   2.9937868      4.4897821      0              0.55429409   
     38300   3.0560969      4.5832285      0              0.56583068   
     38400   2.9753949      4.4621998      0              0.55088886   
     38500   2.9866743      4.4791154      0              0.55297721   
     38600   2.9826726      4.4731141      0              0.55223631   
     38700   3.009066       4.5126962      0              0.55712299   
     38800   2.9457068      4.4176765      0              0.54539217   
     38900   3.0247197      4.5361721      0              0.56002124   
     39000   2.9834608      4.4742961      0              0.55238224   
     39100   2.9705144      4.4548805      0              0.54998524   
     39200   2.9371466      4.4048388      0              0.54380726   
     39300   2.9282507      4.3914975      0              0.54216019   
     39400   3.0519684      4.5770371      0              0.56506631   
     39500   2.9870551      4.4796865      0              0.55304771   
     39600   2.9773946      4.4651986      0              0.55125909   
     39700   2.9868022      4.4793073      0              0.5530009    
     39800   2.973107       4.4587686      0              0.55046526   
     39900   2.9835338      4.4744057      0              0.55239576   
     40000   2.9957157      4.4926748      0              0.55465121   
Loop time of 7.34335 on 1 procs for 40000 steps with 5000 atoms

Performance: 2353148.592 tau/day, 5447.103 timesteps/s, 27.236 Matom-step/s
99.8% CPU use with 1 MPI tasks x 1 OpenMP threads

MPI task timing breakdown:
Section |  min time  |  avg time  |  max time  |%varavg| %total
---------------------------------------------------------------
Pair    | 0          | 0          | 0          |   0.0 |  0.00
Neigh   | 0.039681   | 0.039681   | 0.039681   |   0.0 |  0.54
Comm    | 0.22474    | 0.22474    | 0.22474    |   0.0 |  3.06
Output  | 0.0075283  | 0.0075283  | 0.0075283  |   0.0 |  0.10
Modify  | 6.649      | 6.649      | 6.649      |   0.0 | 90.54
Other   |            | 0.4224     |            |       |  5.75

Nlocal:           5000 ave        5000 max        5000 min
Histogram: 1 0 0 0 0 0 0 0 0 0
Nghost:              0 ave           0 max           0 min
Histogram: 1 0 0 0 0 0 0 0 0 0
Neighs:              0 ave           0 max           0 min
Histogram: 1 0 0 0 0 0 0 0 0 0

Total # of neighbors = 0
Ave neighs/atom = 0
Neighbor list builds = 8962
Dangerous builds = 0
Total wall time: 0:00:07
