LAMMPS data file. CGCMM style. atom_style molecular generated by Python script on Mon Dec 08 01:40:57 2025
286 atoms
416 bonds
806 angles
1564 dihedrals
260 impropers
1 atom types
1 bond types
1 angle types
1 dihedral types
1 improper types
-60.0 60.0 xlo xhi
-40.0 40.0 ylo yhi
-40.0 40.0 zlo zhi

Masses

1 12.0107

Atoms # molecular

1 1 1 -4.334430 -1.885398 -9.231950
2 1 1 -4.676728 -0.707894 -9.941950
3 1 1 -4.676728 -0.707894 -11.361950
4 1 1 -4.334430 -1.885398 -12.071950
5 1 1 -3.699089 -2.934220 -11.361950
6 1 1 -3.699089 -2.934220 -9.941950
7 1 1 -2.813593 -3.783201 -9.231950
8 1 1 -2.813593 -3.783201 -12.071950
9 1 1 -1.738961 -4.373837 -11.361950
10 1 1 -1.738961 -4.373837 -9.941950
11 1 1 -0.547608 -4.666328 -9.231950
12 1 1 -0.547608 -4.666328 -12.071950
13 1 1 0.678369 -4.640518 -11.361950
14 1 1 0.678369 -4.640518 -9.941950
15 1 1 1.856356 -4.298146 -9.231950
16 1 1 1.856356 -4.298146 -12.071950
17 1 1 2.905178 -3.662805 -11.361950
18 1 1 2.905178 -3.662805 -9.941950
19 1 1 3.754158 -2.777309 -9.231950
20 1 1 3.754158 -2.777309 -12.071950
21 1 1 4.344795 -1.702677 -11.361950
22 1 1 4.344795 -1.702677 -9.941950
23 1 1 4.637285 -0.511324 -9.231950
24 1 1 4.637285 -0.511324 -12.071950
25 1 1 4.611475 0.714653 -11.361950
26 1 1 4.611475 0.714653 -9.941950
27 1 1 4.269103 1.892640 -9.231950
28 1 1 4.269103 1.892640 -12.071950
29 1 1 3.633763 2.941462 -11.361950
30 1 1 3.633763 2.941462 -9.941950
31 1 1 2.748266 3.790442 -9.231950
32 1 1 2.748266 3.790442 -12.071950
33 1 1 1.673634 4.381079 -11.361950
34 1 1 1.673634 4.381079 -9.941950
35 1 1 0.482282 4.673569 -9.231950
36 1 1 0.482282 4.673569 -12.071950
37 1 1 -0.743695 4.647759 -11.361950
38 1 1 -0.743695 4.647759 -9.941950
39 1 1 -1.921682 4.305387 -9.231950
40 1 1 -1.921682 4.305387 -12.071950
41 1 1 -2.970504 3.670047 -11.361950
42 1 1 -2.970504 3.670047 -9.941950
43 1 1 -3.819485 2.784550 -9.231950
44 1 1 -3.819485 2.784550 -12.071950
45 1 1 -4.410121 1.709918 -11.361950
46 1 1 -4.410121 1.709918 -9.941950
47 1 1 -3.698937 -2.934411 -7.101527
48 1 1 -4.334332 -1.885622 -7.811527
49 1 1 -2.813790 -3.783057 -7.811527
50 1 1 -1.738734 -4.373926 -7.101527
51 1 1 -0.547851 -4.666301 -7.811527
52 1 1 0.678610 -4.640481 -7.101527
53 1 1 1.856132 -4.298244 -7.811527
54 1 1 2.905368 -3.662653 -7.101527
55 1 1 3.754014 -2.777506 -7.811527
56 1 1 4.344883 -1.702450 -7.101527
57 1 1 4.637259 -0.511567 -7.811527
58 1 1 4.611438 0.714894 -7.101527
59 1 1 4.269201 1.892416 -7.811527
60 1 1 3.633610 2.941652 -7.101527
61 1 1 2.748463 3.790298 -7.811527
62 1 1 1.673407 4.381167 -7.101527
63 1 1 0.482524 4.673543 -7.811527
64 1 1 -0.743936 4.647722 -7.101527
65 1 1 -1.921459 4.305485 -7.811527
66 1 1 -2.970695 3.669894 -7.101527
67 1 1 -3.819341 2.784747 -7.811527
68 1 1 -4.410210 1.709691 -7.101527
69 1 1 -4.702585 0.518808 -9.231527
70 1 1 -4.702585 0.518808 -7.811527
71 1 1 -4.334430 -1.885398 -4.971105
72 1 1 -4.676728 -0.707894 -5.681105
73 1 1 -4.676728 -0.707894 -7.101105
74 1 1 -3.699089 -2.934220 -5.681105
75 1 1 -2.813593 -3.783201 -4.971105
76 1 1 -1.738961 -4.373837 -5.681105
77 1 1 -0.547608 -4.666328 -4.971105
78 1 1 0.678369 -4.640518 -5.681105
79 1 1 1.856356 -4.298146 -4.971105
80 1 1 2.905178 -3.662805 -5.681105
81 1 1 3.754158 -2.777309 -4.971105
82 1 1 4.344795 -1.702677 -5.681105
83 1 1 4.637285 -0.511324 -4.971105
84 1 1 4.611475 0.714653 -5.681105
85 1 1 4.269103 1.892640 -4.971105
86 1 1 3.633763 2.941462 -5.681105
87 1 1 2.748266 3.790442 -4.971105
88 1 1 1.673634 4.381079 -5.681105
89 1 1 0.482282 4.673569 -4.971105
90 1 1 -0.743695 4.647759 -5.681105
91 1 1 -1.921682 4.305387 -4.971105
92 1 1 -2.970504 3.670047 -5.681105
93 1 1 -3.819485 2.784550 -4.971105
94 1 1 -4.410121 1.709918 -5.681105
95 1 1 -3.698937 -2.934411 -2.840682
96 1 1 -4.334332 -1.885622 -3.550682
97 1 1 -2.813790 -3.783057 -3.550682
98 1 1 -1.738734 -4.373926 -2.840682
99 1 1 -0.547851 -4.666301 -3.550682
100 1 1 0.678610 -4.640481 -2.840682
101 1 1 1.856132 -4.298244 -3.550682
102 1 1 2.905368 -3.662653 -2.840682
103 1 1 3.754014 -2.777506 -3.550682
104 1 1 4.344883 -1.702450 -2.840682
105 1 1 4.637259 -0.511567 -3.550682
106 1 1 4.611438 0.714894 -2.840682
107 1 1 4.269201 1.892416 -3.550682
108 1 1 3.633610 2.941652 -2.840682
109 1 1 2.748463 3.790298 -3.550682
110 1 1 1.673407 4.381167 -2.840682
111 1 1 0.482524 4.673543 -3.550682
112 1 1 -0.743936 4.647722 -2.840682
113 1 1 -1.921459 4.305485 -3.550682
114 1 1 -2.970695 3.669894 -2.840682
115 1 1 -3.819341 2.784747 -3.550682
116 1 1 -4.410210 1.709691 -2.840682
117 1 1 -4.702585 0.518808 -4.970682
118 1 1 -4.702585 0.518808 -3.550682
119 1 1 -4.334430 -1.885398 -0.710260
120 1 1 -4.676728 -0.707894 -1.420260
121 1 1 -4.676728 -0.707894 -2.840260
122 1 1 -3.699089 -2.934220 -1.420260
123 1 1 -2.813593 -3.783201 -0.710260
124 1 1 -1.738961 -4.373837 -1.420260
125 1 1 -0.547608 -4.666328 -0.710260
126 1 1 0.678369 -4.640518 -1.420260
127 1 1 1.856356 -4.298146 -0.710260
128 1 1 2.905178 -3.662805 -1.420260
129 1 1 3.754158 -2.777309 -0.710260
130 1 1 4.344795 -1.702677 -1.420260
131 1 1 4.637285 -0.511324 -0.710260
132 1 1 4.611475 0.714653 -1.420260
133 1 1 4.269103 1.892640 -0.710260
134 1 1 3.633763 2.941462 -1.420260
135 1 1 2.748266 3.790442 -0.710260
136 1 1 1.673634 4.381079 -1.420260
137 1 1 0.482282 4.673569 -0.710260
138 1 1 -0.743695 4.647759 -1.420260
139 1 1 -1.921682 4.305387 -0.710260
140 1 1 -2.970504 3.670047 -1.420260
141 1 1 -3.819485 2.784550 -0.710260
142 1 1 -4.410121 1.709918 -1.420260
143 1 1 -3.698937 -2.934411 1.420162
144 1 1 -4.334332 -1.885622 0.710162
145 1 1 -2.813790 -3.783057 0.710162
146 1 1 -1.738734 -4.373926 1.420162
147 1 1 -0.547851 -4.666301 0.710162
148 1 1 0.678610 -4.640481 1.420162
149 1 1 1.856132 -4.298244 0.710162
150 1 1 2.905368 -3.662653 1.420162
151 1 1 3.754014 -2.777506 0.710162
152 1 1 4.344883 -1.702450 1.420162
153 1 1 4.637259 -0.511567 0.710162
154 1 1 4.611438 0.714894 1.420162
155 1 1 4.269201 1.892416 0.710162
156 1 1 3.633610 2.941652 1.420162
157 1 1 2.748463 3.790298 0.710162
158 1 1 1.673407 4.381167 1.420162
159 1 1 0.482524 4.673543 0.710162
160 1 1 -0.743936 4.647722 1.420162
161 1 1 -1.921459 4.305485 0.710162
162 1 1 -2.970695 3.669894 1.420162
163 1 1 -3.819341 2.784747 0.710162
164 1 1 -4.410210 1.709691 1.420162
165 1 1 -4.702585 0.518808 -0.709838
166 1 1 -4.702585 0.518808 0.710162
167 1 1 -4.334430 -1.885398 3.550585
168 1 1 -4.676728 -0.707894 2.840585
169 1 1 -4.676728 -0.707894 1.420585
170 1 1 -3.699089 -2.934220 2.840585
171 1 1 -2.813593 -3.783201 3.550585
172 1 1 -1.738961 -4.373837 2.840585
173 1 1 -0.547608 -4.666328 3.550585
174 1 1 0.678369 -4.640518 2.840585
175 1 1 1.856356 -4.298146 3.550585
176 1 1 2.905178 -3.662805 2.840585
177 1 1 3.754158 -2.777309 3.550585
178 1 1 4.344795 -1.702677 2.840585
179 1 1 4.637285 -0.511324 3.550585
180 1 1 4.611475 0.714653 2.840585
181 1 1 4.269103 1.892640 3.550585
182 1 1 3.633763 2.941462 2.840585
183 1 1 2.748266 3.790442 3.550585
184 1 1 1.673634 4.381079 2.840585
185 1 1 0.482282 4.673569 3.550585
186 1 1 -0.743695 4.647759 2.840585
187 1 1 -1.921682 4.305387 3.550585
188 1 1 -2.970504 3.670047 2.840585
189 1 1 -3.819485 2.784550 3.550585
190 1 1 -4.410121 1.709918 2.840585
191 1 1 -3.698937 -2.934411 5.681007
192 1 1 -4.334332 -1.885622 4.971007
193 1 1 -2.813790 -3.783057 4.971007
194 1 1 -1.738734 -4.373926 5.681007
195 1 1 -0.547851 -4.666301 4.971007
196 1 1 0.678610 -4.640481 5.681007
197 1 1 1.856132 -4.298244 4.971007
198 1 1 2.905368 -3.662653 5.681007
199 1 1 3.754014 -2.777506 4.971007
200 1 1 4.344883 -1.702450 5.681007
201 1 1 4.637259 -0.511567 4.971007
202 1 1 4.611438 0.714894 5.681007
203 1 1 4.269201 1.892416 4.971007
204 1 1 3.633610 2.941652 5.681007
205 1 1 2.748463 3.790298 4.971007
206 1 1 1.673407 4.381167 5.681007
207 1 1 0.482524 4.673543 4.971007
208 1 1 -0.743936 4.647722 5.681007
209 1 1 -1.921459 4.305485 4.971007
210 1 1 -2.970695 3.669894 5.681007
211 1 1 -3.819341 2.784747 4.971007
212 1 1 -4.410210 1.709691 5.681007
213 1 1 -4.702585 0.518808 3.551007
214 1 1 -4.702585 0.518808 4.971007
215 1 1 -4.334430 -1.885398 7.811430
216 1 1 -4.676728 -0.707894 7.101430
217 1 1 -4.676728 -0.707894 5.681430
218 1 1 -3.699089 -2.934220 7.101430
219 1 1 -2.813593 -3.783201 7.811430
220 1 1 -1.738961 -4.373837 7.101430
221 1 1 -0.547608 -4.666328 7.811430
222 1 1 0.678369 -4.640518 7.101430
223 1 1 1.856356 -4.298146 7.811430
224 1 1 2.905178 -3.662805 7.101430
225 1 1 3.754158 -2.777309 7.811430
226 1 1 4.344795 -1.702677 7.101430
227 1 1 4.637285 -0.511324 7.811430
228 1 1 4.611475 0.714653 7.101430
229 1 1 4.269103 1.892640 7.811430
230 1 1 3.633763 2.941462 7.101430
231 1 1 2.748266 3.790442 7.811430
232 1 1 1.673634 4.381079 7.101430
233 1 1 0.482282 4.673569 7.811430
234 1 1 -0.743695 4.647759 7.101430
235 1 1 -1.921682 4.305387 7.811430
236 1 1 -2.970504 3.670047 7.101430
237 1 1 -3.819485 2.784550 7.811430
238 1 1 -4.410121 1.709918 7.101430
239 1 1 -3.698937 -2.934411 9.941852
240 1 1 -4.334332 -1.885622 9.231852
241 1 1 -2.813790 -3.783057 9.231852
242 1 1 -1.738734 -4.373926 9.941852
243 1 1 -0.547851 -4.666301 9.231852
244 1 1 0.678610 -4.640481 9.941852
245 1 1 1.856132 -4.298244 9.231852
246 1 1 2.905368 -3.662653 9.941852
247 1 1 3.754014 -2.777506 9.231852
248 1 1 4.344883 -1.702450 9.941852
249 1 1 4.637259 -0.511567 9.231852
250 1 1 4.611438 0.714894 9.941852
251 1 1 4.269201 1.892416 9.231852
252 1 1 3.633610 2.941652 9.941852
253 1 1 2.748463 3.790298 9.231852
254 1 1 1.673407 4.381167 9.941852
255 1 1 0.482524 4.673543 9.231852
256 1 1 -0.743936 4.647722 9.941852
257 1 1 -1.921459 4.305485 9.231852
258 1 1 -2.970695 3.669894 9.941852
259 1 1 -3.819341 2.784747 9.231852
260 1 1 -4.410210 1.709691 9.941852
261 1 1 -4.702585 0.518808 7.811852
262 1 1 -4.702585 0.518808 9.231852
263 1 1 -4.334430 -1.885398 12.072275
264 1 1 -4.676728 -0.707894 11.362275
265 1 1 -4.676728 -0.707894 9.942275
266 1 1 -3.699089 -2.934220 11.362275
267 1 1 -2.813593 -3.783201 12.072275
268 1 1 -1.738961 -4.373837 11.362275
269 1 1 -0.547608 -4.666328 12.072275
270 1 1 0.678369 -4.640518 11.362275
271 1 1 1.856356 -4.298146 12.072275
272 1 1 2.905178 -3.662805 11.362275
273 1 1 3.754158 -2.777309 12.072275
274 1 1 4.344795 -1.702677 11.362275
275 1 1 4.637285 -0.511324 12.072275
276 1 1 4.611475 0.714653 11.362275
277 1 1 4.269103 1.892640 12.072275
278 1 1 3.633763 2.941462 11.362275
279 1 1 2.748266 3.790442 12.072275
280 1 1 1.673634 4.381079 11.362275
281 1 1 0.482282 4.673569 12.072275
282 1 1 -0.743695 4.647759 11.362275
283 1 1 -1.921682 4.305387 12.072275
284 1 1 -2.970504 3.670047 11.362275
285 1 1 -3.819485 2.784550 12.072275
286 1 1 -4.410121 1.709918 11.362275

Bonds

1 1 1 2
2 1 1 6
3 1 1 48
4 1 2 3
5 1 2 69
6 1 3 4
7 1 4 5
8 1 5 6
9 1 5 8
10 1 6 7
11 1 7 10
12 1 7 49
13 1 8 9
14 1 9 10
15 1 9 12
16 1 10 11
17 1 11 14
18 1 11 51
19 1 12 13
20 1 13 14
21 1 13 16
22 1 14 15
23 1 15 18
24 1 15 53
25 1 16 17
26 1 17 18
27 1 17 20
28 1 18 19
29 1 19 22
30 1 19 55
31 1 20 21
32 1 21 22
33 1 21 24
34 1 22 23
35 1 23 26
36 1 23 57
37 1 24 25
38 1 25 26
39 1 25 28
40 1 26 27
41 1 27 30
42 1 27 59
43 1 28 29
44 1 29 30
45 1 29 32
46 1 30 31
47 1 31 34
48 1 31 61
49 1 32 33
50 1 33 34
51 1 33 36
52 1 34 35
53 1 35 38
54 1 35 63
55 1 36 37
56 1 37 38
57 1 37 40
58 1 38 39
59 1 39 42
60 1 39 65
61 1 40 41
62 1 41 42
63 1 41 44
64 1 42 43
65 1 43 46
66 1 43 67
67 1 44 45
68 1 45 46
69 1 46 69
70 1 47 48
71 1 47 49
72 1 47 74
73 1 48 73
74 1 49 50
75 1 50 51
76 1 50 76
77 1 51 52
78 1 52 53
79 1 52 78
80 1 53 54
81 1 54 55
82 1 54 80
83 1 55 56
84 1 56 57
85 1 56 82
86 1 57 58
87 1 58 59
88 1 58 84
89 1 59 60
90 1 60 61
91 1 60 86
92 1 61 62
93 1 62 63
94 1 62 88
95 1 63 64
96 1 64 65
97 1 64 90
98 1 65 66
99 1 66 67
100 1 66 92
101 1 67 68
102 1 68 70
103 1 68 94
104 1 69 70
105 1 70 73
106 1 71 72
107 1 71 74
108 1 71 96
109 1 72 73
110 1 72 117
111 1 74 75
112 1 75 76
113 1 75 97
114 1 76 77
115 1 77 78
116 1 77 99
117 1 78 79
118 1 79 80
119 1 79 101
120 1 80 81
121 1 81 82
122 1 81 103
123 1 82 83
124 1 83 84
125 1 83 105
126 1 84 85
127 1 85 86
128 1 85 107
129 1 86 87
130 1 87 88
131 1 87 109
132 1 88 89
133 1 89 90
134 1 89 111
135 1 90 91
136 1 91 92
137 1 91 113
138 1 92 93
139 1 93 94
140 1 93 115
141 1 94 117
142 1 95 96
143 1 95 97
144 1 95 122
145 1 96 121
146 1 97 98
147 1 98 99
148 1 98 124
149 1 99 100
150 1 100 101
151 1 100 126
152 1 101 102
153 1 102 103
154 1 102 128
155 1 103 104
156 1 104 105
157 1 104 130
158 1 105 106
159 1 106 107
160 1 106 132
161 1 107 108
162 1 108 109
163 1 108 134
164 1 109 110
165 1 110 111
166 1 110 136
167 1 111 112
168 1 112 113
169 1 112 138
170 1 113 114
171 1 114 115
172 1 114 140
173 1 115 116
174 1 116 118
175 1 116 142
176 1 117 118
177 1 118 121
178 1 119 120
179 1 119 122
180 1 119 144
181 1 120 121
182 1 120 165
183 1 122 123
184 1 123 124
185 1 123 145
186 1 124 125
187 1 125 126
188 1 125 147
189 1 126 127
190 1 127 128
191 1 127 149
192 1 128 129
193 1 129 130
194 1 129 151
195 1 130 131
196 1 131 132
197 1 131 153
198 1 132 133
199 1 133 134
200 1 133 155
201 1 134 135
202 1 135 136
203 1 135 157
204 1 136 137
205 1 137 138
206 1 137 159
207 1 138 139
208 1 139 140
209 1 139 161
210 1 140 141
211 1 141 142
212 1 141 163
213 1 142 165
214 1 143 144
215 1 143 145
216 1 143 170
217 1 144 169
218 1 145 146
219 1 146 147
220 1 146 172
221 1 147 148
222 1 148 149
223 1 148 174
224 1 149 150
225 1 150 151
226 1 150 176
227 1 151 152
228 1 152 153
229 1 152 178
230 1 153 154
231 1 154 155
232 1 154 180
233 1 155 156
234 1 156 157
235 1 156 182
236 1 157 158
237 1 158 159
238 1 158 184
239 1 159 160
240 1 160 161
241 1 160 186
242 1 161 162
243 1 162 163
244 1 162 188
245 1 163 164
246 1 164 166
247 1 164 190
248 1 165 166
249 1 166 169
250 1 167 168
251 1 167 170
252 1 167 192
253 1 168 169
254 1 168 213
255 1 170 171
256 1 171 172
257 1 171 193
258 1 172 173
259 1 173 174
260 1 173 195
261 1 174 175
262 1 175 176
263 1 175 197
264 1 176 177
265 1 177 178
266 1 177 199
267 1 178 179
268 1 179 180
269 1 179 201
270 1 180 181
271 1 181 182
272 1 181 203
273 1 182 183
274 1 183 184
275 1 183 205
276 1 184 185
277 1 185 186
278 1 185 207
279 1 186 187
280 1 187 188
281 1 187 209
282 1 188 189
283 1 189 190
284 1 189 211
285 1 190 213
286 1 191 192
287 1 191 193
288 1 191 218
289 1 192 217
290 1 193 194
291 1 194 195
292 1 194 220
293 1 195 196
294 1 196 197
295 1 196 222
296 1 197 198
297 1 198 199
298 1 198 224
299 1 199 200
300 1 200 201
301 1 200 226
302 1 201 202
303 1 202 203
304 1 202 228
305 1 203 204
306 1 204 205
307 1 204 230
308 1 205 206
309 1 206 207
310 1 206 232
311 1 207 208
312 1 208 209
313 1 208 234
314 1 209 210
315 1 210 211
316 1 210 236
317 1 211 212
318 1 212 214
319 1 212 238
320 1 213 214
321 1 214 217
322 1 215 216
323 1 215 218
324 1 215 240
325 1 216 217
326 1 216 261
327 1 218 219
328 1 219 220
329 1 219 241
330 1 220 221
331 1 221 222
332 1 221 243
333 1 222 223
334 1 223 224
335 1 223 245
336 1 224 225
337 1 225 226
338 1 225 247
339 1 226 227
340 1 227 228
341 1 227 249
342 1 228 229
343 1 229 230
344 1 229 251
345 1 230 231
346 1 231 232
347 1 231 253
348 1 232 233
349 1 233 234
350 1 233 255
351 1 234 235
352 1 235 236
353 1 235 257
354 1 236 237
355 1 237 238
356 1 237 259
357 1 238 261
358 1 239 240
359 1 239 241
360 1 239 266
361 1 240 265
362 1 241 242
363 1 242 243
364 1 242 268
365 1 243 244
366 1 244 245
367 1 244 270
368 1 245 246
369 1 246 247
370 1 246 272
371 1 247 248
372 1 248 249
373 1 248 274
374 1 249 250
375 1 250 251
376 1 250 276
377 1 251 252
378 1 252 253
379 1 252 278
380 1 253 254
381 1 254 255
382 1 254 280
383 1 255 256
384 1 256 257
385 1 256 282
386 1 257 258
387 1 258 259
388 1 258 284
389 1 259 260
390 1 260 262
391 1 260 286
392 1 261 262
393 1 262 265
394 1 263 264
395 1 263 266
396 1 264 265
397 1 266 267
398 1 267 268
399 1 268 269
400 1 269 270
401 1 270 271
402 1 271 272
403 1 272 273
404 1 273 274
405 1 274 275
406 1 275 276
407 1 276 277
408 1 277 278
409 1 278 279
410 1 279 280
411 1 280 281
412 1 281 282
413 1 282 283
414 1 283 284
415 1 284 285
416 1 285 286

Angles

1 1 1 2 3
2 1 1 2 69
3 1 1 6 5
4 1 1 6 7
5 1 1 48 47
6 1 1 48 73
7 1 2 1 6
8 1 2 1 48
9 1 2 3 4
10 1 2 69 46
11 1 2 69 70
12 1 3 2 69
13 1 3 4 5
14 1 4 5 6
15 1 4 5 8
16 1 5 6 7
17 1 5 8 9
18 1 6 1 48
19 1 6 5 8
20 1 6 7 10
21 1 6 7 49
22 1 7 10 9
23 1 7 10 11
24 1 7 49 47
25 1 7 49 50
26 1 8 9 10
27 1 8 9 12
28 1 9 10 11
29 1 9 12 13
30 1 10 7 49
31 1 10 9 12
32 1 10 11 14
33 1 10 11 51
34 1 11 14 13
35 1 11 14 15
36 1 11 51 50
37 1 11 51 52
38 1 12 13 14
39 1 12 13 16
40 1 13 14 15
41 1 13 16 17
42 1 14 11 51
43 1 14 13 16
44 1 14 15 18
45 1 14 15 53
46 1 15 18 17
47 1 15 18 19
48 1 15 53 52
49 1 15 53 54
50 1 16 17 18
51 1 16 17 20
52 1 17 18 19
53 1 17 20 21
54 1 18 15 53
55 1 18 17 20
56 1 18 19 22
57 1 18 19 55
58 1 19 22 21
59 1 19 22 23
60 1 19 55 54
61 1 19 55 56
62 1 20 21 22
63 1 20 21 24
64 1 21 22 23
65 1 21 24 25
66 1 22 19 55
67 1 22 21 24
68 1 22 23 26
69 1 22 23 57
70 1 23 26 25
71 1 23 26 27
72 1 23 57 56
73 1 23 57 58
74 1 24 25 26
75 1 24 25 28
76 1 25 26 27
77 1 25 28 29
78 1 26 23 57
79 1 26 25 28
80 1 26 27 30
81 1 26 27 59
82 1 27 30 29
83 1 27 30 31
84 1 27 59 58
85 1 27 59 60
86 1 28 29 30
87 1 28 29 32
88 1 29 30 31
89 1 29 32 33
90 1 30 27 59
91 1 30 29 32
92 1 30 31 34
93 1 30 31 61
94 1 31 34 33
95 1 31 34 35
96 1 31 61 60
97 1 31 61 62
98 1 32 33 34
99 1 32 33 36
100 1 33 34 35
101 1 33 36 37
102 1 34 31 61
103 1 34 33 36
104 1 34 35 38
105 1 34 35 63
106 1 35 38 37
107 1 35 38 39
108 1 35 63 62
109 1 35 63 64
110 1 36 37 38
111 1 36 37 40
112 1 37 38 39
113 1 37 40 41
114 1 38 35 63
115 1 38 37 40
116 1 38 39 42
117 1 38 39 65
118 1 39 42 41
119 1 39 42 43
120 1 39 65 64
121 1 39 65 66
122 1 40 41 42
123 1 40 41 44
124 1 41 42 43
125 1 41 44 45
126 1 42 39 65
127 1 42 41 44
128 1 42 43 46
129 1 42 43 67
130 1 43 46 45
131 1 43 46 69
132 1 43 67 66
133 1 43 67 68
134 1 44 45 46
135 1 45 46 69
136 1 46 43 67
137 1 46 69 70
138 1 47 48 73
139 1 47 49 50
140 1 47 74 71
141 1 47 74 75
142 1 48 47 49
143 1 48 47 74
144 1 48 73 70
145 1 48 73 72
146 1 49 47 74
147 1 49 50 51
148 1 49 50 76
149 1 50 51 52
150 1 50 76 75
151 1 50 76 77
152 1 51 50 76
153 1 51 52 53
154 1 51 52 78
155 1 52 53 54
156 1 52 78 77
157 1 52 78 79
158 1 53 52 78
159 1 53 54 55
160 1 53 54 80
161 1 54 55 56
162 1 54 80 79
163 1 54 80 81
164 1 55 54 80
165 1 55 56 57
166 1 55 56 82
167 1 56 57 58
168 1 56 82 81
169 1 56 82 83
170 1 57 56 82
171 1 57 58 59
172 1 57 58 84
173 1 58 59 60
174 1 58 84 83
175 1 58 84 85
176 1 59 58 84
177 1 59 60 61
178 1 59 60 86
179 1 60 61 62
180 1 60 86 85
181 1 60 86 87
182 1 61 60 86
183 1 61 62 63
184 1 61 62 88
185 1 62 63 64
186 1 62 88 87
187 1 62 88 89
188 1 63 62 88
189 1 63 64 65
190 1 63 64 90
191 1 64 65 66
192 1 64 90 89
193 1 64 90 91
194 1 65 64 90
195 1 65 66 67
196 1 65 66 92
197 1 66 67 68
198 1 66 92 91
199 1 66 92 93
200 1 67 66 92
201 1 67 68 70
202 1 67 68 94
203 1 68 70 69
204 1 68 70 73
205 1 68 94 93
206 1 68 94 117
207 1 69 70 73
208 1 70 68 94
209 1 70 73 72
210 1 71 72 73
211 1 71 72 117
212 1 71 74 75
213 1 71 96 95
214 1 71 96 121
215 1 72 71 74
216 1 72 71 96
217 1 72 117 94
218 1 72 117 118
219 1 73 72 117
220 1 74 71 96
221 1 74 75 76
222 1 74 75 97
223 1 75 76 77
224 1 75 97 95
225 1 75 97 98
226 1 76 75 97
227 1 76 77 78
228 1 76 77 99
229 1 77 78 79
230 1 77 99 98
231 1 77 99 100
232 1 78 77 99
233 1 78 79 80
234 1 78 79 101
235 1 79 80 81
236 1 79 101 100
237 1 79 101 102
238 1 80 79 101
239 1 80 81 82
240 1 80 81 103
241 1 81 82 83
242 1 81 103 102
243 1 81 103 104
244 1 82 81 103
245 1 82 83 84
246 1 82 83 105
247 1 83 84 85
248 1 83 105 104
249 1 83 105 106
250 1 84 83 105
251 1 84 85 86
252 1 84 85 107
253 1 85 86 87
254 1 85 107 106
255 1 85 107 108
256 1 86 85 107
257 1 86 87 88
258 1 86 87 109
259 1 87 88 89
260 1 87 109 108
261 1 87 109 110
262 1 88 87 109
263 1 88 89 90
264 1 88 89 111
265 1 89 90 91
266 1 89 111 110
267 1 89 111 112
268 1 90 89 111
269 1 90 91 92
270 1 90 91 113
271 1 91 92 93
272 1 91 113 112
273 1 91 113 114
274 1 92 91 113
275 1 92 93 94
276 1 92 93 115
277 1 93 94 117
278 1 93 115 114
279 1 93 115 116
280 1 94 93 115
281 1 94 117 118
282 1 95 96 121
283 1 95 97 98
284 1 95 122 119
285 1 95 122 123
286 1 96 95 97
287 1 96 95 122
288 1 96 121 118
289 1 96 121 120
290 1 97 95 122
291 1 97 98 99
292 1 97 98 124
293 1 98 99 100
294 1 98 124 123
295 1 98 124 125
296 1 99 98 124
297 1 99 100 101
298 1 99 100 126
299 1 100 101 102
300 1 100 126 125
301 1 100 126 127
302 1 101 100 126
303 1 101 102 103
304 1 101 102 128
305 1 102 103 104
306 1 102 128 127
307 1 102 128 129
308 1 103 102 128
309 1 103 104 105
310 1 103 104 130
311 1 104 105 106
312 1 104 130 129
313 1 104 130 131
314 1 105 104 130
315 1 105 106 107
316 1 105 106 132
317 1 106 107 108
318 1 106 132 131
319 1 106 132 133
320 1 107 106 132
321 1 107 108 109
322 1 107 108 134
323 1 108 109 110
324 1 108 134 133
325 1 108 134 135
326 1 109 108 134
327 1 109 110 111
328 1 109 110 136
329 1 110 111 112
330 1 110 136 135
331 1 110 136 137
332 1 111 110 136
333 1 111 112 113
334 1 111 112 138
335 1 112 113 114
336 1 112 138 137
337 1 112 138 139
338 1 113 112 138
339 1 113 114 115
340 1 113 114 140
341 1 114 115 116
342 1 114 140 139
343 1 114 140 141
344 1 115 114 140
345 1 115 116 118
346 1 115 116 142
347 1 116 118 117
348 1 116 118 121
349 1 116 142 141
350 1 116 142 165
351 1 117 118 121
352 1 118 116 142
353 1 118 121 120
354 1 119 120 121
355 1 119 120 165
356 1 119 122 123
357 1 119 144 143
358 1 119 144 169
359 1 120 119 122
360 1 120 119 144
361 1 120 165 142
362 1 120 165 166
363 1 121 120 165
364 1 122 119 144
365 1 122 123 124
366 1 122 123 145
367 1 123 124 125
368 1 123 145 143
369 1 123 145 146
370 1 124 123 145
371 1 124 125 126
372 1 124 125 147
373 1 125 126 127
374 1 125 147 146
375 1 125 147 148
376 1 126 125 147
377 1 126 127 128
378 1 126 127 149
379 1 127 128 129
380 1 127 149 148
381 1 127 149 150
382 1 128 127 149
383 1 128 129 130
384 1 128 129 151
385 1 129 130 131
386 1 129 151 150
387 1 129 151 152
388 1 130 129 151
389 1 130 131 132
390 1 130 131 153
391 1 131 132 133
392 1 131 153 152
393 1 131 153 154
394 1 132 131 153
395 1 132 133 134
396 1 132 133 155
397 1 133 134 135
398 1 133 155 154
399 1 133 155 156
400 1 134 133 155
401 1 134 135 136
402 1 134 135 157
403 1 135 136 137
404 1 135 157 156
405 1 135 157 158
406 1 136 135 157
407 1 136 137 138
408 1 136 137 159
409 1 137 138 139
410 1 137 159 158
411 1 137 159 160
412 1 138 137 159
413 1 138 139 140
414 1 138 139 161
415 1 139 140 141
416 1 139 161 160
417 1 139 161 162
418 1 140 139 161
419 1 140 141 142
420 1 140 141 163
421 1 141 142 165
422 1 141 163 162
423 1 141 163 164
424 1 142 141 163
425 1 142 165 166
426 1 143 144 169
427 1 143 145 146
428 1 143 170 167
429 1 143 170 171
430 1 144 143 145
431 1 144 143 170
432 1 144 169 166
433 1 144 169 168
434 1 145 143 170
435 1 145 146 147
436 1 145 146 172
437 1 146 147 148
438 1 146 172 171
439 1 146 172 173
440 1 147 146 172
441 1 147 148 149
442 1 147 148 174
443 1 148 149 150
444 1 148 174 173
445 1 148 174 175
446 1 149 148 174
447 1 149 150 151
448 1 149 150 176
449 1 150 151 152
450 1 150 176 175
451 1 150 176 177
452 1 151 150 176
453 1 151 152 153
454 1 151 152 178
455 1 152 153 154
456 1 152 178 177
457 1 152 178 179
458 1 153 152 178
459 1 153 154 155
460 1 153 154 180
461 1 154 155 156
462 1 154 180 179
463 1 154 180 181
464 1 155 154 180
465 1 155 156 157
466 1 155 156 182
467 1 156 157 158
468 1 156 182 181
469 1 156 182 183
470 1 157 156 182
471 1 157 158 159
472 1 157 158 184
473 1 158 159 160
474 1 158 184 183
475 1 158 184 185
476 1 159 158 184
477 1 159 160 161
478 1 159 160 186
479 1 160 161 162
480 1 160 186 185
481 1 160 186 187
482 1 161 160 186
483 1 161 162 163
484 1 161 162 188
485 1 162 163 164
486 1 162 188 187
487 1 162 188 189
488 1 163 162 188
489 1 163 164 166
490 1 163 164 190
491 1 164 166 165
492 1 164 166 169
493 1 164 190 189
494 1 164 190 213
495 1 165 166 169
496 1 166 164 190
497 1 166 169 168
498 1 167 168 169
499 1 167 168 213
500 1 167 170 171
501 1 167 192 191
502 1 167 192 217
503 1 168 167 170
504 1 168 167 192
505 1 168 213 190
506 1 168 213 214
507 1 169 168 213
508 1 170 167 192
509 1 170 171 172
510 1 170 171 193
511 1 171 172 173
512 1 171 193 191
513 1 171 193 194
514 1 172 171 193
515 1 172 173 174
516 1 172 173 195
517 1 173 174 175
518 1 173 195 194
519 1 173 195 196
520 1 174 173 195
521 1 174 175 176
522 1 174 175 197
523 1 175 176 177
524 1 175 197 196
525 1 175 197 198
526 1 176 175 197
527 1 176 177 178
528 1 176 177 199
529 1 177 178 179
530 1 177 199 198
531 1 177 199 200
532 1 178 177 199
533 1 178 179 180
534 1 178 179 201
535 1 179 180 181
536 1 179 201 200
537 1 179 201 202
538 1 180 179 201
539 1 180 181 182
540 1 180 181 203
541 1 181 182 183
542 1 181 203 202
543 1 181 203 204
544 1 182 181 203
545 1 182 183 184
546 1 182 183 205
547 1 183 184 185
548 1 183 205 204
549 1 183 205 206
550 1 184 183 205
551 1 184 185 186
552 1 184 185 207
553 1 185 186 187
554 1 185 207 206
555 1 185 207 208
556 1 186 185 207
557 1 186 187 188
558 1 186 187 209
559 1 187 188 189
560 1 187 209 208
561 1 187 209 210
562 1 188 187 209
563 1 188 189 190
564 1 188 189 211
565 1 189 190 213
566 1 189 211 210
567 1 189 211 212
568 1 190 189 211
569 1 190 213 214
570 1 191 192 217
571 1 191 193 194
572 1 191 218 215
573 1 191 218 219
574 1 192 191 193
575 1 192 191 218
576 1 192 217 214
577 1 192 217 216
578 1 193 191 218
579 1 193 194 195
580 1 193 194 220
581 1 194 195 196
582 1 194 220 219
583 1 194 220 221
584 1 195 194 220
585 1 195 196 197
586 1 195 196 222
587 1 196 197 198
588 1 196 222 221
589 1 196 222 223
590 1 197 196 222
591 1 197 198 199
592 1 197 198 224
593 1 198 199 200
594 1 198 224 223
595 1 198 224 225
596 1 199 198 224
597 1 199 200 201
598 1 199 200 226
599 1 200 201 202
600 1 200 226 225
601 1 200 226 227
602 1 201 200 226
603 1 201 202 203
604 1 201 202 228
605 1 202 203 204
606 1 202 228 227
607 1 202 228 229
608 1 203 202 228
609 1 203 204 205
610 1 203 204 230
611 1 204 205 206
612 1 204 230 229
613 1 204 230 231
614 1 205 204 230
615 1 205 206 207
616 1 205 206 232
617 1 206 207 208
618 1 206 232 231
619 1 206 232 233
620 1 207 206 232
621 1 207 208 209
622 1 207 208 234
623 1 208 209 210
624 1 208 234 233
625 1 208 234 235
626 1 209 208 234
627 1 209 210 211
628 1 209 210 236
629 1 210 211 212
630 1 210 236 235
631 1 210 236 237
632 1 211 210 236
633 1 211 212 214
634 1 211 212 238
635 1 212 214 213
636 1 212 214 217
637 1 212 238 237
638 1 212 238 261
639 1 213 214 217
640 1 214 212 238
641 1 214 217 216
642 1 215 216 217
643 1 215 216 261
644 1 215 218 219
645 1 215 240 239
646 1 215 240 265
647 1 216 215 218
648 1 216 215 240
649 1 216 261 238
650 1 216 261 262
651 1 217 216 261
652 1 218 215 240
653 1 218 219 220
654 1 218 219 241
655 1 219 220 221
656 1 219 241 239
657 1 219 241 242
658 1 220 219 241
659 1 220 221 222
660 1 220 221 243
661 1 221 222 223
662 1 221 243 242
663 1 221 243 244
664 1 222 221 243
665 1 222 223 224
666 1 222 223 245
667 1 223 224 225
668 1 223 245 244
669 1 223 245 246
670 1 224 223 245
671 1 224 225 226
672 1 224 225 247
673 1 225 226 227
674 1 225 247 246
675 1 225 247 248
676 1 226 225 247
677 1 226 227 228
678 1 226 227 249
679 1 227 228 229
680 1 227 249 248
681 1 227 249 250
682 1 228 227 249
683 1 228 229 230
684 1 228 229 251
685 1 229 230 231
686 1 229 251 250
687 1 229 251 252
688 1 230 229 251
689 1 230 231 232
690 1 230 231 253
691 1 231 232 233
692 1 231 253 252
693 1 231 253 254
694 1 232 231 253
695 1 232 233 234
696 1 232 233 255
697 1 233 234 235
698 1 233 255 254
699 1 233 255 256
700 1 234 233 255
701 1 234 235 236
702 1 234 235 257
703 1 235 236 237
704 1 235 257 256
705 1 235 257 258
706 1 236 235 257
707 1 236 237 238
708 1 236 237 259
709 1 237 238 261
710 1 237 259 258
711 1 237 259 260
712 1 238 237 259
713 1 238 261 262
714 1 239 240 265
715 1 239 241 242
716 1 239 266 263
717 1 239 266 267
718 1 240 239 241
719 1 240 239 266
720 1 240 265 262
721 1 240 265 264
722 1 241 239 266
723 1 241 242 243
724 1 241 242 268
725 1 242 243 244
726 1 242 268 267
727 1 242 268 269
728 1 243 242 268
729 1 243 244 245
730 1 243 244 270
731 1 244 245 246
732 1 244 270 269
733 1 244 270 271
734 1 245 244 270
735 1 245 246 247
736 1 245 246 272
737 1 246 247 248
738 1 246 272 271
739 1 246 272 273
740 1 247 246 272
741 1 247 248 249
742 1 247 248 274
743 1 248 249 250
744 1 248 274 273
745 1 248 274 275
746 1 249 248 274
747 1 249 250 251
748 1 249 250 276
749 1 250 251 252
750 1 250 276 275
751 1 250 276 277
752 1 251 250 276
753 1 251 252 253
754 1 251 252 278
755 1 252 253 254
756 1 252 278 277
757 1 252 278 279
758 1 253 252 278
759 1 253 254 255
760 1 253 254 280
761 1 254 255 256
762 1 254 280 279
763 1 254 280 281
764 1 255 254 280
765 1 255 256 257
766 1 255 256 282
767 1 256 257 258
768 1 256 282 281
769 1 256 282 283
770 1 257 256 282
771 1 257 258 259
772 1 257 258 284
773 1 258 259 260
774 1 258 284 283
775 1 258 284 285
776 1 259 258 284
777 1 259 260 262
778 1 259 260 286
779 1 260 262 261
780 1 260 262 265
781 1 260 286 285
782 1 261 262 265
783 1 262 260 286
784 1 262 265 264
785 1 263 264 265
786 1 263 266 267
787 1 264 263 266
788 1 266 267 268
789 1 267 268 269
790 1 268 269 270
791 1 269 270 271
792 1 270 271 272
793 1 271 272 273
794 1 272 273 274
795 1 273 274 275
796 1 274 275 276
797 1 275 276 277
798 1 276 277 278
799 1 277 278 279
800 1 278 279 280
801 1 279 280 281
802 1 280 281 282
803 1 281 282 283
804 1 282 283 284
805 1 283 284 285
806 1 284 285 286

Dihedrals

1 1 1 2 3 4
2 1 1 2 69 46
3 1 1 2 69 70
4 1 1 6 5 4
5 1 1 6 5 8
6 1 1 6 7 10
7 1 1 6 7 49
8 1 1 48 47 49
9 1 1 48 47 74
10 1 1 48 73 70
11 1 1 48 73 72
12 1 2 1 6 5
13 1 2 1 6 7
14 1 2 1 48 47
15 1 2 1 48 73
16 1 2 3 4 5
17 1 2 69 46 43
18 1 2 69 46 45
19 1 2 69 70 68
20 1 2 69 70 73
21 1 3 2 1 6
22 1 3 2 1 48