LAMMPS (10 Sep 2025 - Development - patch_10Sep2025-660-g792d014343)
OMP_NUM_THREADS environment is not set. Defaulting to 1 thread.
  using 1 OpenMP thread(s) per MPI task
# Defining the essential variables

units lj
dimension 3
atom_style atomic
boundary p p p




# Creating  a large box

region my_box block 0 30 0 30 0 30
create_box 1 my_box
Created orthogonal box = (0 0 0) to (30 30 30)
  1 by 1 by 1 MPI processor grid





# Filling up the box with the particles

create_atoms 1 random 5000 87910 my_box
Created 5000 atoms
  using lattice units in orthogonal box = (0 0 0) to (30 30 30)
  create_atoms CPU = 0.000 seconds




# Defining the particle's properties and switching off the interaction

mass 1 1.0

pair_style lj/cut 2.5
pair_style none




# Creating initial velocity distribution for a given temperature

velocity all create 1.0 12345 mom yes rot no  # Assign initial velocities




# Setting up Brownian dynamics through the Langevin thermostat at a particular temperature

fix my_thermo_stat all langevin 1  1  0.6 89080




# Applying an integrator to update the position and the velocity

fix integrator all nve




# Setting up time achieved by each simulation step

timestep 0.005




# Specifying the parameters to print on the terminal

thermo 100
thermo_style custom step temp ke pe press






# Apply another compute to calculate the mean squared displacement

compute msd_all all msd
fix msd_output all ave/time 100 1 100 c_msd_all file msd.dat mode vector





# Running the simulation

run 40000
WARNING: No pairwise cutoff or binsize set. Atom sorting therefore disabled. (src/atom.cpp:2486)
WARNING: Communication cutoff is 0.0. No ghost atoms will be generated. Energies and forces may be wrong and atoms may get lost. (src/comm_brick.cpp:188)
Per MPI rank memory allocation (min/avg/max) = 2.672 | 2.672 | 2.672 Mbytes
   Step          Temp          KinEng         PotEng         Press     
         0   1              1.4997         0              0.18514815   
       100   1.0249704      1.5371481      0              0.18977137   
       200   0.9915866      1.4870824      0              0.18359042   
       300   0.99870862     1.4977633      0              0.18490905   
       400   0.98109996     1.4713556      0              0.18164884   
       500   1.0023345      1.5032011      0              0.18558038   
       600   1.0059475      1.5086194      0              0.18624931   
       700   1.0019407      1.5026105      0              0.18550747   
       800   1.0003907      1.500286       0              0.18522049   
       900   0.98508793     1.4773364      0              0.18238721   
      1000   1.0187807      1.5278654      0              0.18862536   
      1100   1.0136073      1.5201069      0              0.18766752   
      1200   1.0252905      1.5376282      0              0.18983064   
      1300   1.0061904      1.5089838      0              0.18629429   
      1400   1.0129846      1.519173       0              0.18755222   
      1500   0.9913465      1.4867223      0              0.18354597   
      1600   0.98716571     1.4804524      0              0.1827719    
      1700   0.98044295     1.4703703      0              0.1815272    
      1800   0.99775964     1.4963401      0              0.18473335   
      1900   0.98862068     1.4826344      0              0.18304129   
      2000   0.99027504     1.4851155      0              0.18334759   
      2100   1.0148121      1.5219138      0              0.18789059   
      2200   0.99787677     1.4965158      0              0.18475504   
      2300   0.99784026     1.496461       0              0.18474828   
      2400   1.0025707      1.5035552      0              0.1856241    
      2500   1.0076431      1.5111623      0              0.18656325   
      2600   0.98749745     1.4809499      0              0.18283332   
      2700   1.0007094      1.5007639      0              0.18527949   
      2800   0.99412758     1.4908931      0              0.18406088   
      2900   1.0152822      1.5226187      0              0.18797761   
      3000   1.0121489      1.5179197      0              0.1873975    
      3100   1.0112425      1.5165603      0              0.18722967   
      3200   1.0169106      1.5250608      0              0.18827911   
      3300   0.99379616     1.4903961      0              0.18399952   
      3400   0.9862257      1.4790427      0              0.18259786   
      3500   1.0050421      1.5072616      0              0.18608168   
      3600   1.032043       1.5477549      0              0.19108085   
      3700   1.0049252      1.5070864      0              0.18606004   
      3800   0.99836461     1.4972474      0              0.18484536   
      3900   1.0042796      1.5061181      0              0.18594051   
      4000   0.99583078     1.4934474      0              0.18437622   
      4100   0.97480894     1.461921       0              0.18048407   
      4200   0.98373589     1.4753087      0              0.18213688   
      4300   0.98563479     1.4781565      0              0.18248846   
      4400   0.97659016     1.4645923      0              0.18081386   
      4500   0.98003515     1.4697587      0              0.18145169   
      4600   0.98521491     1.4775268      0              0.18241072   
      4700   0.98484986     1.4769793      0              0.18234313   
      4800   1.0019665      1.5026492      0              0.18551225   
      4900   0.99625302     1.4940806      0              0.1844544    
      5000   1.0129254      1.5190843      0              0.18754127   
      5100   1.0051665      1.5074483      0              0.18610472   
      5200   0.99319762     1.4894985      0              0.1838887    
      5300   0.99753389     1.4960016      0              0.18469155   
      5400   1.0095904      1.5140828      0              0.1869238    
      5500   1.013652       1.5201739      0              0.18767579   
      5600   0.9869889      1.4801873      0              0.18273917   
      5700   0.99649922     1.4944499      0              0.18449998   
      5800   0.98890761     1.4830647      0              0.18309441   
      5900   1.0005249      1.5004873      0              0.18524534   
      6000   0.99767044     1.4962064      0              0.18471683   
      6100   1.004888       1.5070305      0              0.18605315   
      6200   0.98764821     1.481176       0              0.18286124   
      6300   0.98918907     1.4834868      0              0.18314652   
      6400   1.0144025      1.5212994      0              0.18781474   
      6500   1.0081257      1.5118862      0              0.18665261   
      6600   1.0011627      1.5014437      0              0.18536342   
      6700   0.98368381     1.4752306      0              0.18212724   
      6800   0.98836464     1.4822505      0              0.18299388   
      6900   0.98783054     1.4814495      0              0.182895     
      7000   1.0081974      1.5119937      0              0.18666589   
      7100   1.0087582      1.5128347      0              0.18676972   
      7200   0.99650351     1.4944563      0              0.18450078   
      7300   1.0003161      1.500174       0              0.18520667   
      7400   0.97899178     1.468194       0              0.18125851   
      7500   0.99613823     1.4939085      0              0.18443315   
      7600   0.9998306      1.4994459      0              0.18511678   
      7700   1.0153483      1.5227179      0              0.18798986   
      7800   0.99934154     1.4987125      0              0.18502624   
      7900   1.0015983      1.502097       0              0.18544408   
      8000   1.0078443      1.5114642      0              0.18660051   
      8100   1.0327969      1.5488855      0              0.19122043   
      8200   1.0255544      1.5380239      0              0.18987949   
      8300   1.0094791      1.5139159      0              0.18690319   
      8400   1.0134547      1.519878       0              0.18763926   
      8500   1.0055483      1.5080208      0              0.18617541   
      8600   1.0311309      1.546387       0              0.19091197   
      8700   1.0293409      1.5437025      0              0.19058055   
      8800   1.0013416      1.5017119      0              0.18539653   
      8900   1.0182167      1.5270196      0              0.18852093   
      9000   1.022978       1.5341602      0              0.18940249   
      9100   1.0087942      1.5128887      0              0.18677638   
      9200   1.0258472      1.538463       0              0.1899337    
      9300   1.0075497      1.5110222      0              0.18654595   
      9400   1.0080961      1.5118417      0              0.18664713   
      9500   0.97432768     1.4611992      0              0.18039497   
      9600   0.99831295     1.4971699      0              0.18483579   
      9700   1.0066361      1.5096522      0              0.18637681   
      9800   1.0009471      1.5011204      0              0.18532351   
      9900   0.99370987     1.4902667      0              0.18398354   
     10000   0.99871378     1.4977711      0              0.18491001   
     10100   1.0105675      1.515548       0              0.1871047    
     10200   1.0072655      1.5105961      0              0.18649334   
     10300   1.0045004      1.5064493      0              0.1859814    
     10400   1.0132047      1.519503       0              0.18759297   
     10500   1.0077765      1.5113624      0              0.18658795   
     10600   1.0303781      1.545258       0              0.19077259   
     10700   1.0033897      1.5047835      0              0.18577574   
     10800   1.0168966      1.5250398      0              0.18827652   
     10900   1.0177643      1.5263412      0              0.18843718   
     11000   1.0050956      1.5073418      0              0.18609158   
     11100   1.0108818      1.5160194      0              0.18716289   
     11200   1.0273311      1.5406884      0              0.19020845   
     11300   0.99596288     1.4936455      0              0.18440068   
     11400   0.99189597     1.4875464      0              0.1836477    
     11500   1.0055089      1.5079617      0              0.18616811   
     11600   0.99703739     1.495257       0              0.18459963   
     11700   1.0035712      1.5050557      0              0.18580935   
     11800   1.0049631      1.5071432      0              0.18606706   
     11900   0.99395993     1.4906417      0              0.18402984   
     12000   0.99629985     1.4941509      0              0.18446307   
     12100   0.98078518     1.4708835      0              0.18159056   
     12200   0.99183885     1.4874607      0              0.18363713   
     12300   0.99524682     1.4925717      0              0.18426811   
     12400   1.0060889      1.5088316      0              0.1862755    
     12500   0.98543185     1.4778521      0              0.18245088   
     12600   0.99379353     1.4903922      0              0.18399903   
     12700   1.0023395      1.5032085      0              0.18558129   
     12800   1.0131575      1.5194323      0              0.18758424   
     12900   1.0047814      1.5068706      0              0.18603341   
     13000   1.0111021      1.5163498      0              0.18720368   
     13100   1.0067836      1.5098734      0              0.18640412   
     13200   1.0059262      1.5085876      0              0.18624538   
     13300   0.99880156     1.4979027      0              0.18492626   
     13400   0.98919247     1.4834919      0              0.18314715   
     13500   1.0294511      1.5438678      0              0.19060096   
     13600   0.98289028     1.4740406      0              0.18198032   
     13700   1.000675       1.5007123      0              0.18527312   
     13800   1.0066135      1.5096183      0              0.18637263   
     13900   1.0057084      1.5082609      0              0.18620505   
     14000   0.98924323     1.4835681      0              0.18315655   
     14100   1.0135726      1.5200549      0              0.18766109   
     14200   0.99646639     1.4944006      0              0.18449391   
     14300   0.99244776     1.4883739      0              0.18374987   
     14400   0.99596001     1.4936412      0              0.18440015   
     14500   0.98624301     1.4790686      0              0.18260107   
     14600   0.97872081     1.4677876      0              0.18120835   
     14700   0.98190394     1.4725613      0              0.1817977    
     14800   1.0072079      1.5105096      0              0.18648267   
     14900   0.99420464     1.4910087      0              0.18407515   
     15000   1.0221326      1.5328922      0              0.18924595   
     15100   1.0110315      1.516244       0              0.18719061   
     15200   1.0064949      1.5094404      0              0.18635066   
     15300   1.0027781      1.5038663      0              0.18566251   
     15400   0.9861075      1.4788654      0              0.18257598   
     15500   1.0035082      1.5049612      0              0.18579768   
     15600   1.004235       1.5060513      0              0.18593225   
     15700   0.99502948     1.4922457      0              0.18422787   
     15800   0.99192598     1.4875914      0              0.18365326   
     15900   0.98528795     1.4776363      0              0.18242424   
     16000   0.99022897     1.4850464      0              0.18333906   
     16100   0.99107819     1.48632        0              0.18349629   
     16200   1.0082738      1.5121082      0              0.18668002   
     16300   0.99561937     1.4931304      0              0.18433708   
     16400   0.99097775     1.4861693      0              0.1834777    
     16500   0.98358564     1.4750834      0              0.18210906   
     16600   0.98733032     1.4806993      0              0.18280238   
     16700   0.9974119      1.4958186      0              0.18466897   
     16800   0.98775175     1.4813313      0              0.18288041   
     16900   0.9954441      1.4928675      0              0.18430463   
     17000   0.98879208     1.4828915      0              0.18307302   
     17100   1.0005807      1.5005708      0              0.18525566   
     17200   1.0008891      1.5010334      0              0.18531276   
     17300   1.0236258      1.5351316      0              0.18952242   
     17400   1.0078912      1.5115344      0              0.18660918   
     17500   0.99433425     1.4912031      0              0.18409915   
     17600   1.0064931      1.5094377      0              0.18635033   
     17700   1.0228899      1.5340279      0              0.18938616   
     17800   1.0003692      1.5002537      0              0.18521651   
     17900   0.99426597     1.4911007      0              0.1840865    
     18000   0.98145272     1.4718847      0              0.18171415   
     18100   0.9773318      1.4657045      0              0.18095117   
     18200   0.97751759     1.4659831      0              0.18098557   
     18300   0.99050541     1.485461       0              0.18339024   
     18400   0.98540626     1.4778138      0              0.18244614   
     18500   0.99744107     1.4958624      0              0.18467437   
     18600   0.98685504     1.4799865      0              0.18271438   
     18700   1.003426       1.504838       0              0.18578247   
     18800   0.99919394     1.4984911      0              0.18499891   
     18900   0.98114177     1.4714183      0              0.18165658   
     19000   1.0132501      1.5195712      0              0.18760138   
     19100   1.0197573      1.5293301      0              0.18880618   
     19200   1.0192325      1.5285429      0              0.188709     
     19300   0.98147848     1.4719233      0              0.18171892   
     19400   0.99134859     1.4867255      0              0.18354635   
     19500   1.0049884      1.5071811      0              0.18607174   
     19600   1.0130326      1.519245       0              0.18756111   
     19700   1.0119121      1.5175645      0              0.18735364   
     19800   0.99330079     1.4896532      0              0.1839078    
     19900   0.99101976     1.4862323      0              0.18348547   
     20000   0.98905445     1.483285       0              0.1831216    
     20100   0.99911858     1.4983781      0              0.18498496   
     20200   1.0074675      1.510899       0              0.18653074   
     20300   1.0196345      1.5291459      0              0.18878345   
     20400   1.0028044      1.5039057      0              0.18566737   
     20500   1.0084911      1.5124341      0              0.18672026   
     20600   1.0082072      1.5120083      0              0.18666769   
     20700   0.99326057     1.4895929      0              0.18390036   
     20800   0.98884727     1.4829742      0              0.18308324   
     20900   0.96936809     1.4537613      0              0.17947671   
     21000   0.98849756     1.4824498      0              0.18301849   
     21100   0.99750058     1.4959516      0              0.18468539   
     21200   0.99733003     1.4956958      0              0.18465381   
     21300   1.0033021      1.5046522      0              0.18575953   
     21400   0.99240605     1.4883114      0              0.18374214   
     21500   0.9861677      1.4789557      0              0.18258712   
     21600   0.99961922     1.4991289      0              0.18507765   
     21700   0.99824569     1.4970691      0              0.18482334   
     21800   1.0056296      1.5081428      0              0.18619047   
     21900   1.0101466      1.5149168      0              0.18702676   
     22000   1.0121571      1.517932       0              0.18739901   
     22100   1.0020489      1.5027728      0              0.18552751   
     22200   0.98849837     1.482451       0              0.18301864   
     22300   0.98708115     1.4803256      0              0.18275625   
     22400   1.0052747      1.5076104      0              0.18612475   
     22500   0.98188543     1.4725336      0              0.18179427   
     22600   1.0040064      1.5057085      0              0.18588993   
     22700   1.0009647      1.5011467      0              0.18532675   
     22800   1.0006786      1.5007177      0              0.18527379   
     22900   0.99379054     1.4903877      0              0.18399848   
     23000   0.9883478      1.4822252      0              0.18299076   
     23100   0.99460537     1.4916097      0              0.18414934   
     23200   0.98730267     1.4806578      0              0.18279726   
     23300   0.99584356     1.4934666      0              0.18437859   
     23400   0.99817728     1.4969665      0              0.18481067   
     23500   0.99889136     1.4980374      0              0.18494289   
     23600   0.98947707     1.4839188      0              0.18319985   
     23700   1.0031572      1.5044348      0              0.18573269   
     23800   1.0006907      1.5007358      0              0.18527603   
     23900   1.0013723      1.501758       0              0.18540223   
     24000   1.0167604      1.5248355      0              0.1882513    
     24100   1.0057396      1.5083077      0              0.18621082   
     24200   1.0005297      1.5004944      0              0.18524622   
     24300   1.0164442      1.5243614      0              0.18819276   
     24400   0.99190166     1.4875549      0              0.18364876   
     24500   1.0021002      1.5028496      0              0.18553699   
     24600   0.99631634     1.4941756      0              0.18446613   
     24700   1.0089291      1.513091       0              0.18680136   
     24800   1.0029131      1.5040688      0              0.18568751   
     24900   1.0115058      1.5169553      0              0.18727843   
     25000   1.0154301      1.5228406      0              0.18800501   
     25100   1.0084128      1.5123166      0              0.18670576   
     25200   0.97673662     1.4648119      0              0.18084098   
     25300   0.98780786     1.4814154      0              0.1828908    
     25400   0.99852807     1.4974925      0              0.18487562   
     25500   0.99338606     1.4897811      0              0.18392359   
     25600   1.0014822      1.5019229      0              0.18542258   
     25700   0.9862764      1.4791187      0              0.18260725   
     25800   0.99276579     1.4888509      0              0.18380875   
     25900   0.99692559     1.4950893      0              0.18457893   
     26000   0.99740322     1.4958056      0              0.18466736   
     26100   0.97918301     1.4684808      0              0.18129392   
     26200   0.98980718     1.4844138      0              0.18326097   
     26300   1.0017885      1.5023821      0              0.18547928   
     26400   1.0129215      1.5190783      0              0.18754053   
     26500   1.0055754      1.5080615      0              0.18618043   
     26600   1.0076511      1.5111744      0              0.18656474   
     26700   1.00357        1.5050539      0              0.18580912   
     26800   0.9721382      1.4579157      0              0.17998959   
     26900   0.99883842     1.497958       0              0.18493308   
     27000   0.99684434     1.4949675      0              0.18456388   
     27100   1.0186091      1.527608       0              0.18859358   
     27200   0.99842492     1.4973379      0              0.18485653   
     27300   1.0121771      1.517962       0              0.18740271   
     27400   0.99494135     1.4921135      0              0.18421155   
     27500   1.0082193      1.5120264      0              0.18666993   
     27600   0.9989246      1.4980872      0              0.18494904   
     27700   0.99823122     1.4970474      0              0.18482066   
     27800   1.001979       1.502668       0              0.18551456   
     27900   0.99508493     1.4923289      0              0.18423813   
     28000   1.0076542      1.511179       0              0.18656531   
     28100   1.0054697      1.5079029      0              0.18616086   
     28200   1.0092041      1.5135034      0              0.18685228   
     28300   1.0028895      1.5040334      0              0.18568313   
     28400   1.0093022      1.5136505      0              0.18687044   
     28500   0.9995169      1.4989755      0              0.1850587    
     28600   1.000004       1.4997061      0              0.1851489    
     28700   1.0028401      1.5039593      0              0.18567399   
     28800   0.98662345     1.4796392      0              0.18267151   
     28900   0.99849418     1.4974417      0              0.18486935   
     29000   1.0006669      1.5007001      0              0.18527162   
     29100   1.0066564      1.5096827      0              0.18638058   
     29200   1.0001848      1.4999771      0              0.18518236   
     29300   0.97875182     1.4678341      0              0.18121409   
     29400   1.0063939      1.5092889      0              0.18633196   
     29500   0.99552967     1.4929958      0              0.18432047   
     29600   1.0143021      1.5211488      0              0.18779615   
     29700   1.0043705      1.5062545      0              0.18595734   
     29800   0.98115671     1.4714407      0              0.18165935   
     29900   1.0084834      1.5124226      0              0.18671884   
     30000   0.98664171     1.4796666      0              0.18267489   
     30100   0.98040287     1.4703102      0              0.18151978   
     30200   0.99085197     1.4859807      0              0.18345441   
     30300   0.98558661     1.4780842      0              0.18247954   
     30400   1.0164089      1.5243085      0              0.18818623   
     30500   1.0130557      1.5192796      0              0.18756539   
     30600   1.0018704      1.502505       0              0.18549445   
     30700   0.98918986     1.483488       0              0.18314667   
     30800   0.9983517      1.497228       0              0.18484297   
     30900   0.99792907     1.4965942      0              0.18476472   
     31000   0.9850161      1.4772286      0              0.18237391   
     31100   1.0068387      1.509956       0              0.18641432   
     31200   0.98076162     1.4708482      0              0.1815862    
     31300   0.98883632     1.4829578      0              0.18308121   
     31400   0.99479863     1.4918995      0              0.18418512   
     31500   0.9873791      1.4807724      0              0.18281141   
     31600   1.014784       1.5218716      0              0.18788538   
     31700   0.99596668     1.4936512      0              0.18440139   
     31800   1.0084418      1.5123602      0              0.18671113   
     31900   1.0186224      1.5276281      0              0.18859606   
     32000   1.0126312      1.518643       0              0.18748678   
     32100   0.98088302     1.4710303      0              0.18160868   
     32200   1.0003484      1.5002225      0              0.18521265   
     32300   1.0048888      1.5070318      0              0.18605331   
     32400   1.0016529      1.5021789      0              0.18545418   
     32500   1.0046297      1.5066431      0              0.18600532   
     32600   1.0212026      1.5314975      0              0.18907376   
     32700   1.0057353      1.5083012      0              0.18621003   
     32800   0.99978936     1.4993841      0              0.18510915   
     32900   1.0018501      1.5024746      0              0.18549069   
     33000   0.9811365      1.4714104      0              0.18165561   
     33100   0.9923794      1.4882714      0              0.18373721   
     33200   1.0024538      1.50338        0              0.18560246   
     33300   0.99546075     1.4928925      0              0.18430771   
     33400   1.0062364      1.5090527      0              0.1863028    
     33500   0.99392006     1.4905819      0              0.18402246   
     33600   1.0134655      1.5198941      0              0.18764125   
     33700   0.99771061     1.4962666      0              0.18472427   
     33800   0.99673573     1.4948046      0              0.18454377   
     33900   1.0226527      1.5336722      0              0.18934225   
     34000   1.003272       1.504607       0              0.18575395   
     34100   1.0193246      1.5286811      0              0.18872606   
     34200   0.99856872     1.4975535      0              0.18488315   
     34300   1.000338       1.5002069      0              0.18521072   
     34400   0.99998332     1.499675       0              0.18514506   
     34500   0.98356907     1.4750585      0              0.18210599   
     34600   0.99562667     1.4931413      0              0.18433844   
     34700   1.002722       1.5037821      0              0.18565211   
     34800   0.99902229     1.4982337      0              0.18496713   
     34900   0.98454352     1.4765199      0              0.18228641   
     35000   0.99170569     1.487261       0              0.18361247   
     35100   0.99728793     1.4956327      0              0.18464601   
     35200   1.0048674      1.5069996      0              0.18604934   
     35300   1.0021238      1.5028851      0              0.18554137   
     35400   0.9843589      1.476243       0              0.18225223   
     35500   1.0125117      1.5184638      0              0.18746467   
     35600   0.99228673     1.4881324      0              0.18372005   
     35700   1.007398       1.5107948      0              0.18651787   
     35800   0.99654502     1.4945186      0              0.18450846   
     35900   1.0080248      1.5117347      0              0.18663392   
     36000   1.0017344      1.502301       0              0.18546926   
     36100   0.99364754     1.4901732      0              0.183972     
     36200   1.0053657      1.5077469      0              0.18614159   
     36300   1.0197634      1.5293392      0              0.18880731   
     36400   1.0082883      1.5121299      0              0.18668271   
     36500   0.98789411     1.4815448      0              0.18290677   
     36600   1.013225       1.5195335      0              0.18759673   
     36700   1.0108717      1.5160043      0              0.18716103   
     36800   1.018567       1.5275449      0              0.18858578   
     36900   1.0136077      1.5201075      0              0.18766759   
     37000   1.000269       1.5001034      0              0.18519795   
     37100   0.97790738     1.4665677      0              0.18105774   
     37200   0.98774892     1.4813271      0              0.18287988   
     37300   1.006515       1.5094705      0              0.18635439   
     37400   1.0245807      1.5365636      0              0.18969921   
     37500   0.98764414     1.4811699      0              0.18286048   
     37600   0.99108992     1.4863376      0              0.18349846   
     37700   0.984846       1.4769735      0              0.18234241   
     37800   0.98912284     1.4833875      0              0.18313426   
     37900   0.98723404     1.4805549      0              0.18278455   
     38000   0.99582529     1.4934392      0              0.18437521   
     38100   1.0160556      1.5237785      0              0.18812081   
     38200   0.99035834     1.4852404      0              0.18336301   
     38300   1.0073159      1.5106716      0              0.18650267   
     38400   0.98311423     1.4743764      0              0.18202178   
     38500   0.99508482     1.4923287      0              0.18423811   
     38600   0.99627913     1.4941198      0              0.18445924   
     38700   1.0014032      1.5018044      0              0.18540795   
     38800   0.99294925     1.489126       0              0.18384272   
     38900   1.0141195      1.5208749      0              0.18776234   
     39000   1.0164822      1.5244183      0              0.18819979   
     39100   0.99421854     1.4910296      0              0.18407772   
     39200   1.0008276      1.5009412      0              0.18530138   
     39300   1.0071183      1.5103754      0              0.18646609   
     39400   1.0154638      1.5228911      0              0.18801125   
     39500   1.0078936      1.511538       0              0.18660963   
     39600   0.99229436     1.4881438      0              0.18372146   
     39700   1.0154195      1.5228247      0              0.18800305   
     39800   0.99925792     1.4985871      0              0.18501075   
     39900   0.99086664     1.4860027      0              0.18345712   
     40000   1.0037084      1.5052614      0              0.18583475   
Loop time of 7.70794 on 1 procs for 40000 steps with 5000 atoms

Performance: 2241842.986 tau/day, 5189.451 timesteps/s, 25.947 Matom-step/s
99.8% CPU use with 1 MPI tasks x 1 OpenMP threads

MPI task timing breakdown:
Section |  min time  |  avg time  |  max time  |%varavg| %total
---------------------------------------------------------------
Pair    | 0          | 0          | 0          |   0.0 |  0.00
Neigh   | 0.024895   | 0.024895   | 0.024895   |   0.0 |  0.32
Comm    | 0.15436    | 0.15436    | 0.15436    |   0.0 |  2.00
Output  | 0.008012   | 0.008012   | 0.008012   |   0.0 |  0.10
Modify  | 7.1195     | 7.1195     | 7.1195     |   0.0 | 92.37
Other   |            | 0.4012     |            |       |  5.20

Nlocal:           5000 ave        5000 max        5000 min
Histogram: 1 0 0 0 0 0 0 0 0 0
Nghost:              0 ave           0 max           0 min
Histogram: 1 0 0 0 0 0 0 0 0 0
Neighs:              0 ave           0 max           0 min
Histogram: 1 0 0 0 0 0 0 0 0 0

Total # of neighbors = 0
Ave neighs/atom = 0
Neighbor list builds = 5588
Dangerous builds = 0
Total wall time: 0:00:07
