LAMMPS data file. Generated 2026-01-09 08:54:52.954177
6740 atoms
70 bonds
60 angles
50 dihedrals
0 impropers
4 atom types
1 bond types

0.0 14.769394404940591 xlo xhi
0.0 14.769497835581483 ylo yhi
0.0 43.711310009943 zlo zhi

Masses

1 1.0 
2 1.0 
3 1.0 
4 1.0 

Atoms # molecular

1 1 1  0.000000 0.000000 19.201056
2 2 1  0.000000 0.738502 19.939558
3 3 1  0.738502 0.000000 19.939558
4 4 1  0.738502 0.738502 19.201056
5 5 1  1.477004 0.000000 19.201056
6 6 1  1.477004 0.738502 19.939558
7 7 1  2.215506 0.000000 19.939558
8 8 1  2.215506 0.738502 19.201056
9 9 1  2.954009 0.000000 19.201056
10 10 1  2.954009 0.738502 19.939558
11 11 1  3.692511 0.000000 19.939558
12 12 1  3.692511 0.738502 19.201056
13 13 1  4.431013 0.000000 19.201056
14 14 1  4.431013 0.738502 19.939558
15 15 1  5.169515 0.000000 19.939558
16 16 1  5.169515 0.738502 19.201056
17 17 1  5.908017 0.000000 19.201056
18 18 1  5.908017 0.738502 19.939558
19 19 1  6.646519 0.000000 19.939558
20 20 1  6.646519 0.738502 19.201056
21 21 1  7.385021 0.000000 19.201056
22 22 1  7.385021 0.738502 19.939558
23 23 1  8.123524 0.000000 19.939558
24 24 1  8.123524 0.738502 19.201056
25 25 1  8.862026 0.000000 19.201056
26 26 1  8.862026 0.738502 19.939558
27 27 1  9.600528 0.000000 19.939558
28 28 1  9.600528 0.738502 19.201056
29 29 1  10.339030 0.000000 19.201056
30 30 1  10.339030 0.738502 19.939558
31 31 1  11.077532 0.000000 19.939558
32 32 1  11.077532 0.738502 19.201056
33 33 1  11.816034 0.000000 19.201056
34 34 1  11.816034 0.738502 19.939558
35 35 1  12.554536 0.000000 19.939558
36 36 1  12.554536 0.738502 19.201056
37 37 1  13.293038 0.000000 19.201056
38 38 1  13.293038 0.738502 19.939558
39 39 1  14.031541 0.000000 19.939558
40 40 1  14.031541 0.738502 19.201056
41 41 1  0.000000 1.477004 19.201056
42 42 1  0.000000 2.215506 19.939558
43 43 1  0.738502 1.477004 19.939558
44 44 1  0.738502 2.215506 19.201056
45 45 1  1.477004 1.477004 19.201056
46 46 1  1.477004 2.215506 19.939558
47 47 1  2.215506 1.477004 19.939558
48 48 1  2.215506 2.215506 19.201056
49 49 1  2.954009 1.477004 19.201056
50 50 1  2.954009 2.215506 19.939558
51 51 1  3.692511 1.477004 19.939558
52 52 1  3.692511 2.215506 19.201056
53 53 1  4.431013 1.477004 19.201056
54 54 1  4.431013 2.215506 19.939558
55 55 1  5.169515 1.477004 19.939558
56 56 1  5.169515 2.215506 19.201056
57 57 1  5.908017 1.477004 19.201056
58 58 1  5.908017 2.215506 19.939558
59 59 1  6.646519 1.477004 19.939558
60 60 1  6.646519 2.215506 19.201056
61 61 1  7.385021 1.477004 19.201056
62 62 1  7.385021 2.215506 19.939558
63 63 1  8.123524 1.477004 19.939558
64 64 1  8.123524 2.215506 19.201056
65 65 1  8.862026 1.477004 19.201056
66 66 1  8.862026 2.215506 19.939558
67 67 1  9.600528 1.477004 19.939558
68 68 1  9.600528 2.215506 19.201056
69 69 1  10.339030 1.477004 19.201056
70 70 1  10.339030 2.215506 19.939558
71 71 1  11.077532 1.477004 19.939558
72 72 1  11.077532 2.215506 19.201056
73 73 1  11.816034 1.477004 19.201056
74 74 1  11.816034 2.215506 19.939558
75 75 1  12.554536 1.477004 19.939558
76 76 1  12.554536 2.215506 19.201056
77 77 1  13.293038 1.477004 19.201056
78 78 1  13.293038 2.215506 19.939558
79 79 1  14.031541 1.477004 19.939558
80 80 1  14.031541 2.215506 19.201056
81 81 1  0.000000 2.954009 19.201056
82 82 1  0.000000 3.692511 19.939558
83 83 1  0.738502 2.954009 19.939558
84 84 1  0.738502 3.692511 19.201056
85 85 1  1.477004 2.954009 19.201056
86 86 1  1.477004 3.692511 19.939558
87 87 1  2.215506 2.954009 19.939558
88 88 1  2.215506 3.692511 19.201056
89 89 1  2.954009 2.954009 19.201056
90 90 1  2.954009 3.692511 19.939558
91 91 1  3.692511 2.954009 19.939558
92 92 1  3.692511 3.692511 19.201056
93 93 1  4.431013 2.954009 19.201056
94 94 1  4.431013 3.692511 19.939558
95 95 1  5.169515 2.954009 19.939558
96 96 1  5.169515 3.692511 19.201056
97 97 1  5.908017 2.954009 19.201056
98 98 1  6.646519 2.954009 19.939558
99 99 1  7.385021 2.954009 19.201056
100 100 1  8.123524 2.954009 19.939558
101 101 1  8.862026 2.954009 19.201056
102 102 1  9.600528 2.954009 19.939558
103 103 1  9.600528 3.692511 19.201056
104 104 1  10.339030 2.954009 19.201056
105 105 1  10.339030 3.692511 19.939558
106 106 1  11.077532 2.954009 19.939558
107 107 1  11.077532 3.692511 19.201056
108 108 1  11.816034 2.954009 19.201056
109 109 1  11.816034 3.692511 19.939558
110 110 1  12.554536 2.954009 19.939558
111 111 1  12.554536 3.692511 19.201056
112 112 1  13.293038 2.954009 19.201056
113 113 1  13.293038 3.692511 19.939558
114 114 1  14.031541 2.954009 19.939558
115 115 1  14.031541 3.692511 19.201056
116 116 1  0.000000 4.431013 19.201056
117 117 1  0.000000 5.169515 19.939558
118 118 1  0.738502 4.431013 19.939558
119 119 1  0.738502 5.169515 19.201056
120 120 1  1.477004 4.431013 19.201056
121 121 1  1.477004 5.169515 19.939558
122 122 1  2.215506 4.431013 19.939558
123 123 1  2.215506 5.169515 19.201056
124 124 1  2.954009 4.431013 19.201056
125 125 1  2.954009 5.169515 19.939558
126 126 1  3.692511 4.431013 19.939558
127 127 1  3.692511 5.169515 19.201056
128 128 1  4.431013 4.431013 19.201056
129 129 1  10.339030 4.431013 19.201056
130 130 1  11.077532 4.431013 19.939558
131 131 1  11.077532 5.169515 19.201056
132 132 1  11.816034 4.431013 19.201056
133 133 1  11.816034 5.169515 19.939558
134 134 1  12.554536 4.431013 19.939558
135 135 1  12.554536 5.169515 19.201056
136 136 1  13.293038 4.431013 19.201056
137 137 1  13.293038 5.169515 19.939558
138 138 1  14.031541 4.431013 19.939558
139 139 1  14.031541 5.169515 19.201056
140 140 1  0.000000 5.908017 19.201056
141 141 1  0.000000 6.646519 19.939558
142 142 1  0.738502 5.908017 19.939558
143 143 1  0.738502 6.646519 19.201056
144 144 1  1.477004 5.908017 19.201056
145 145 1  1.477004 6.646519 19.939558
146 146 1  2.215506 5.908017 19.939558
147 147 1  2.215506 6.646519 19.201056
148 148 1  2.954009 5.908017 19.201056
149 149 1  2.954009 6.646519 19.939558
150 150 1  11.816034 5.908017 19.201056
151 151 1  11.816034 6.646519 19.939558
152 152 1  12.554536 5.908017 19.939558
153 153 1  12.554536 6.646519 19.201056
154 154 1  13.293038 5.908017 19.201056
155 155 1  13.293038 6.646519 19.939558
156 156 1  14.031541 5.908017 19.939558
157 157 1  14.031541 6.646519 19.201056
158 158 1  0.000000 7.385021 19.201056
159 159 1  0.000000 8.123524 19.939558
160 160 1  0.738502 7.385021 19.939558
161 161 1  0.738502 8.123524 19.201056
162 162 1  1.477004 7.385021 19.201056
163 163 1  1.477004 8.123524 19.939558
164 164 1  2.215506 7.385021 19.939558
165 165 1  2.215506 8.123524 19.201056
166 166 1  2.954009 7.385021 19.201056
167 167 1  2.954009 8.123524 19.939558
168 168 1  11.816034 7.385021 19.201056
169 169 1  11.816034 8.123524 19.939558
170 170 1  12.554536 7.385021 19.939558
171 171 1  12.554536 8.123524 19.201056
172 172 1  13.293038 7.385021 19.201056
173 173 1  13.293038 8.123524 19.939558
174 174 1  14.031541 7.385021 19.939558
175 175 1  14.031541 8.123524 19.201056
176 176 1  0.000000 8.862026 19.201056
177 177 1  0.000000 9.600528 19.939558
178 178 1  0.738502 8.862026 19.939558
179 179 1  0.738502 9.600528 19.201056
180 180 1  1.477004 8.862026 19.201056
181 181 1  1.477004 9.600528 19.939558
182 182 1  2.215506 8.862026 19.939558
183 183 1  2.215506 9.600528 19.201056
184 184 1  2.954009 8.862026 19.201056
185 185 1  2.954009 9.600528 19.939558
186 186 1  3.692511 9.600528 19.201056
187 187 1  11.077532 9.600528 19.201056
188 188 1  11.816034 8.862026 19.201056
189 189 1  11.816034 9.600528 19.939558
190 190 1  12.554536 8.862026 19.939558
191 191 1  12.554536 9.600528 19.201056
192 192 1  13.293038 8.862026 19.201056
193 193 1  13.293038 9.600528 19.939558
194 194 1  14.031541 8.862026 19.939558
195 195 1  14.031541 9.600528 19.201056
196 196 1  0.000000 10.339030 19.201056
197 197 1  0.000000 11.077532 19.939558
198 198 1  0.738502 10.339030 19.939558
199 199 1  0.738502 11.077532 19.201056
200 200 1  1.477004 10.339030 19.201056
201 201 1  1.477004 11.077532 19.939558
202 202 1  2.215506 10.339030 19.939558
203 203 1  2.215506 11.077532 19.201056
204 204 1  2.954009 10.339030 19.201056
205 205 1  2.954009 11.077532 19.939558
206 206 1  3.692511 10.339030 19.939558
207 207 1  3.692511 11.077532 19.201056
208 208 1  4.431013 10.339030 19.201056
209 209 1  4.431013 11.077532 19.939558
210 210 1  5.169515 11.077532 19.201056
211 211 1  9.600528 11.077532 19.201056
212 212 1  10.339030 10.339030 19.201056
213 213 1  10.339030 11.077532 19.939558
214 214 1  11.077532 10.339030 19.939558
215 215 1  11.077532 11.077532 19.201056
216 216 1  11.816034 10.339030 19.201056
217 217 1  11.816034 11.077532 19.939558
218 218 1  12.554536 10.339030 19.939558
219 219 1  12.554536 11.077532 19.201056
220 220 1  13.293038 10.339030 19.201056
221 221 1  13.293038 11.077532 19.939558
222 222 1  14.031541 10.339030 19.939558
223 223 1  14.031541 11.077532 19.201056
224 224 1  0.000000 11.816034 19.201056
225 225 1  0.000000 12.554536 19.939558
226 226 1  0.738502 11.816034 19.939558
227 227 1  0.738502 12.554536 19.201056
228 228 1  1.477004 11.816034 19.201056
229 229 1  1.477004 12.554536 19.939558
230 230 1  2.215506 11.816034 19.939558
231 231 1  2.215506 12.554536 19.201056
232 232 1  2.954009 11.816034 19.201056
233 233 1  2.954009 12.554536 19.939558
234 234 1  3.692511 11.816034 19.939558
235 235 1  3.692511 12.554536 19.201056
236 236 1  4.431013 11.816034 19.201056
237 237 1  4.431013 12.554536 19.939558
238 238 1  5.169515 11.816034 19.939558
239 239 1  5.169515 12.554536 19.201056
240 240 1  5.908017 11.816034 19.201056
241 241 1  5.908017 12.554536 19.939558
242 242 1  6.646519 11.816034 19.939558
243 243 1  6.646519 12.554536 19.201056
244 244 1  7.385021 11.816034 19.201056
245 245 1  7.385021 12.554536 19.939558
246 246 1  8.123524 11.816034 19.939558
247 247 1  8.123524 12.554536 19.201056
248 248 1  8.862026 11.816034 19.201056
249 249 1  8.862026 12.554536 19.939558
250 250 1  9.600528 11.816034 19.939558
251 251 1  9.600528 12.554536 19.201056
252 252 1  10.339030 11.816034 19.201056
253 253 1  10.339030 12.554536 19.939558
254 254 1  11.077532 11.816034 19.939558
255 255 1  11.077532 12.554536 19.201056
256 256 1  11.816034 11.816034 19.201056
257 257 1  11.816034 12.554536 19.939558
258 258 1  12.554536 11.816034 19.939558
259 259 1  12.554536 12.554536 19.201056
260 260 1  13.293038 11.816034 19.201056
261 261 1  13.293038 12.554536 19.939558
262 262 1  14.031541 11.816034 19.939558
263 263 1  14.031541 12.554536 19.201056
264 264 1  0.000000 13.293038 19.201056
265 265 1  0.000000 14.031541 19.939558
266 266 1  0.738502 13.293038 19.939558
267 267 1  0.738502 14.031541 19.201056
268 268 1  1.477004 13.293038 19.201056
269 269 1  1.477004 14.031541 19.939558
270 270 1  2.215506 13.293038 19.939558
271 271 1  2.215506 14.031541 19.201056
272 272 1  2.954009 13.293038 19.201056
273 273 1  2.954009 14.031541 19.939558
274 274 1  3.692511 13.293038 19.939558
275 275 1  3.692511 14.031541 19.201056
276 276 1  4.431013 13.293038 19.201056
277 277 1  4.431013 14.031541 19.939558
278 278 1  5.169515 13.293038 19.939558
279 279 1  5.169515 14.031541 19.201056
280 280 1  5.908017 13.293038 19.201056
281 281 1  5.908017 14.031541 19.939558
282 282 1  6.646519 13.293038 19.939558
283 283 1  6.646519 14.031541 19.201056
284 284 1  7.385021 13.293038 19.201056
285 285 1  7.385021 14.031541 19.939558
286 286 1  8.123524 13.293038 19.939558
287 287 1  8.123524 14.031541 19.201056
288 288 1  8.862026 13.293038 19.201056
289 289 1  8.862026 14.031541 19.939558
290 290 1  9.600528 13.293038 19.939558
291 291 1  9.600528 14.031541 19.201056
292 292 1  10.339030 13.293038 19.201056
293 293 1  10.339030 14.031541 19.939558
294 294 1  11.077532 13.293038 19.939558
295 295 1  11.077532 14.031541 19.201056
296 296 1  11.816034 13.293038 19.201056
297 297 1  11.816034 14.031541 19.939558
298 298 1  12.554536 13.293038 19.939558
299 299 1  12.554536 14.031541 19.201056
300 300 1  13.293038 13.293038 19.201056
301 301 1  13.293038 14.031541 19.939558
302 302 1  14.031541 13.293038 19.939558
303 303 1  14.031541 14.031541 19.201056
304 304 1  0.000000 0.000000 20.678060
305 305 1  0.000000 0.738502 21.416562
306 306 1  0.738502 0.000000 21.416562
307 307 1  0.738502 0.738502 20.678060
308 308 1  1.477004 0.000000 20.678060
309 309 1  1.477004 0.738502 21.416562
310 310 1  2.215506 0.000000 21.416562
311 311 1  2.215506 0.738502 20.678060
312 312 1  2.954009 0.000000 20.678060
313 313 1  2.954009 0.738502 21.416562
314 314 1  3.692511 0.000000 21.416562
315 315 1  3.692511 0.738502 20.678060
316 316 1  4.431013 0.000000 20.678060
317 317 1  4.431013 0.738502 21.416562
318 318 1  5.169515 0.000000 21.416562
319 319 1  5.169515 0.738502 20.678060
320 320 1  5.908017 0.000000 20.678060
321 321 1  5.908017 0.738502 21.416562
322 322 1  6.646519 0.000000 21.416562
323 323 1  6.646519 0.738502 20.678060
324 324 1  7.385021 0.000000 20.678060
325 325 1  7.385021 0.738502 21.416562
326 326 1  8.123524 0.000000 21.416562
327 327 1  8.123524 0.738502 20.678060
328 328 1  8.862026 0.000000 20.678060
329 329 1  8.862026 0.738502 21.416562
330 330 1  9.600528 0.000000 21.416562
331 331 1  9.600528 0.738502 20.678060
332 332 1  10.339030 0.000000 20.678060
333 333 1  10.339030 0.738502 21.416562
334 334 1  11.077532 0.000000 21.416562
335 335 1  11.077532 0.738502 20.678060
336 336 1  11.816034 0.000000 20.678060
337 337 1  11.816034 0.738502 21.416562
338 338 1  12.554536 0.000000 21.416562
339 339 1  12.554536 0.738502 20.678060
340 340 1  13.293038 0.000000 20.678060
341 341 1  13.293038 0.738502 21.416562
342 342 1  14.031541 0.000000 21.416562
343 343 1  14.031541 0.738502 20.678060
344 344 1  0.000000 1.477004 20.678060
345 345 1  0.000000 2.215506 21.416562
346 346 1  0.738502 1.477004 21.416562
347 347 1  0.738502 2.215506 20.678060
348 348 1  1.477004 1.477004 20.678060
349 349 1  1.477004 2.215506 21.416562
350 350 1  2.215506 1.477004 21.416562
351 351 1  2.215506 2.215506 20.678060
352 352 1  2.954009 1.477004 20.678060
353 353 1  2.954009 2.215506 21.416562
354 354 1  3.692511 1.477004 21.416562
355 355 1  3.692511 2.215506 20.678060
356 356 1  4.431013 1.477004 20.678060
357 357 1  4.431013 2.215506 21.416562
358 358 1  5.169515 1.477004 21.416562
359 359 1  5.169515 2.215506 20.678060
360 360 1  5.908017 1.477004 20.678060
361 361 1  5.908017 2.215506 21.416562
362 362 1  6.646519 1.477004 21.416562
363 363 1  6.646519 2.215506 20.678060
364 364 1  7.385021 1.477004 20.678060
365 365 1  7.385021 2.215506 21.416562
366 366 1  8.123524 1.477004 21.416562
367 367 1  8.123524 2.215506 20.678060
368 368 1  8.862026 1.477004 20.678060
369 369 1  8.862026 2.215506 21.416562
370 370 1  9.600528 1.477004 21.416562
371 371 1  9.600528 2.215506 20.678060
372 372 1  10.339030 1.477004 20.678060
373 373 1  10.339030 2.215506 21.416562
374 374 1  11.077532 1.477004 21.416562
375 375 1  11.077532 2.215506 20.678060
376 376 1  11.816034 1.477004 20.678060
377 377 1  11.816034 2.215506 21.416562
378 378 1  12.554536 1.477004 21.416562
379 379 1  12.554536 2.215506 20.678060
380 380 1  13.293038 1.477004 20.678060
381 381 1  13.293038 2.215506 21.416562
382 382 1  14.031541 1.477004 21.416562
383 383 1  14.031541 2.215506 20.678060
384 384 1  0.000000 2.954009 20.678060
385 385 1  0.000000 3.692511 21.416562
386 386 1  0.738502 2.954009 21.416562
387 387 1  0.738502 3.692511 20.678060
388 388 1  1.477004 2.954009 20.678060
389 389 1  1.477004 3.692511 21.416562
390 390 1  2.215506 2.954009 21.416562
391 391 1  2.215506 3.692511 20.678060
392 392 1  2.954009 2.954009 20.678060
393 393 1  2.954009 3.692511 21.416562
394 394 1  3.692511 2.954009 21.416562
395 395 1  3.692511 3.692511 20.678060
396 396 1  4.431013 2.954009 20.678060
397 397 1  4.431013 3.692511 21.416562
398 398 1  5.169515 2.954009 21.416562
399 399 1  5.908017 2.954009 20.678060
400 400 1  6.646519 2.954009 21.416562
401 401 1  7.385021 2.954009 20.678060
402 402 1  8.123524 2.954009 21.416562
403 403 1  8.862026 2.954009 20.678060
404 404 1  9.600528 2.954009 21.416562
405 405 1  10.339030 2.954009 20.678060
406 406 1  10.339030 3.692511 21.416562
407 407 1  11.077532 2.954009 21.416562
408 408 1  11.077532 3.692511 20.678060
409 409 1  11.816034 2.954009 20.678060
410 410 1  11.816034 3.692511 21.416562
411 411 1  12.554536 2.954009 21.416562
412 412 1  12.554536 3.692511 20.678060
413 413 1  13.293038 2.954009 20.678060
414 414 1  13.293038 3.692511 21.416562
415 415 1  14.031541 2.954009 21.416562
416 416 1  14.031541 3.692511 20.678060
417 417 1  0.000000 4.431013 20.678060
418 418 1  0.000000 5.169515 21.416562
419 419 1  0.738502 4.431013 21.416562
420 420 1  0.738502 5.169515 20.678060
421 421 1  1.477004 4.431013 20.678060
422 422 1  1.477004 5.169515 21.416562
423 423 1  2.215506 4.431013 21.416562
424 424 1  2.215506 5.169515 20.678060
425 425 1  2.954009 4.431013 20.678060
426 426 1  2.954009 5.169515 21.416562
427 427 1  3.692511 4.431013 21.416562
428 428 1  11.077532 4.431013 21.416562
429 429 1  11.816034 4.431013 20.678060
430 430 1  11.816034 5.169515 21.416562
431 431 1  12.554536 4.431013 21.416562
432 432 1  12.554536 5.169515 20.678060
433 433 1  13.293038 4.431013 20.678060
434 434 1  13.293038 5.169515 21.416562
435 435 1  14.031541 4.431013 21.416562
436 436 1  14.031541 5.169515 20.678060
437 437 1  0.000000 5.908017 20.678060
438 438 1  0.000000 6.646519 21.416562
439 439 1  0.738502 5.908017 21.416562
440 440 1  0.738502 6.646519 20.678060
441 441 1  1.477004 5.908017 20.678060
442 442 1  1.477004 6.646519 21.416562
443 443 1  2.215506 5.908017 21.416562
444 444 1  2.215506 6.646519 20.678060
445 445 1  2.954009 5.908017 20.678060
446 446 1  2.954009 6.646519 21.416562
447 447 1  11.816034 5.908017 20.678060
448 448 1  11.816034 6.646519 21.416562
449 449 1  12.554536 5.908017 21.416562
450 450 1  12.554536 6.646519 20.678060
451 451 1  13.293038 5.908017 20.678060
452 452 1  13.293038 6.646519 21.416562
453 453 1  14.031541 5.908017 21.416562
454 454 1  14.031541 6.646519 20.678060
455 455 1  0.000000 7.385021 20.678060
456 456 1  0.000000 8.123524 21.416562
457 457 1  0.738502 7.385021 21.416562
458 458 1  0.738502 8.123524 20.678060
459 459 1  1.477004 7.385021 20.678060
460 460 1  1.477004 8.123524 21.416562
461 461 1  2.215506 7.385021 21.416562
462 462 1  2.215506 8.123524 20.678060
463 463 1  2.954009 7.385021 20.678060
464 464 1  2.954009 8.123524 21.416562
465 465 1  11.816034 7.385021 20.678060
466 466 1  11.816034 8.123524 21.416562
467 467 1  12.554536 7.385021 21.416562
468 468 1  12.554536 8.123524 20.678060
469 469 1  13.293038 7.385021 20.678060
470 470 1  13.293038 8.123524 21.416562
471 471 1  14.031541 7.385021 21.416562
472 472 1  14.031541 8.123524 20.678060
473 473 1  0.000000 8.862026 20.678060
474 474 1  0.000000 9.600528 21.416562
475 475 1  0.738502 8.862026 21.416562
476 476 1  0.738502 9.600528 20.678060
477 477 1  1.477004 8.862026 20.678060
478 478 1  1.477004 9.600528 21.416562
479 479 1  2.215506 8.862026 21.416562
480 480 1  2.215506 9.600528 20.678060
481 481 1  2.954009 8.862026 20.678060
482 482 1  2.954009 9.600528 21.416562
483 483 1  11.816034 8.862026 20.678060
484 484 1  11.816034 9.600528 21.416562
485 485 1  12.554536 8.862026 21.416562
486 486 1  12.554536 9.600528 20.678060
487 487 1  13.293038 8.862026 20.678060
488 488 1  13.293038 9.600528 21.416562
489 489 1  14.031541 8.862026 21.416562
490 490 1  14.031541 9.600528 20.678060
491 491 1  0.000000 10.339030 20.678060
492 492 1  0.000000 11.077532 21.416562
493 493 1  0.738502 10.339030 21.416562
494 494 1  0.738502 11.077532 20.678060
495 495 1  1.477004 10.339030 20.678060
496 496 1  1.477004 11.077532 21.416562
497 497 1  2.215506 10.339030 21.416562
498 498 1  2.215506 11.077532 20.678060
499 499 1  2.954009 10.339030 20.678060
500 500 1  2.954009 11.077532 21.416562
501 501 1  3.692511 10.339030 21.416562
502 502 1  3.692511 11.077532 20.678060
503 503 1  4.431013 11.077532 21.416562
504 504 1  10.339030 11.077532 21.416562
505 505 1  11.077532 10.339030 21.416562
506 506 1  11.077532 11.077532 20.678060
507 507 1  11.816034 10.339030 20.678060
508 508 1  11.816034 11.077532 21.416562
509 509 1  12.554536 10.339030 21.416562
510 510 1  12.554536 11.077532 20.678060
511 511 1  13.293038 10.339030 20.678060
512 512 1  13.293038 11.077532 21.416562
513 513 1  14.031541 10.339030 21.416562
514 514 1  14.031541 11.077532 20.678060
515 515 1  0.000000 11.816034 20.678060
516 516 1  0.000000 12.554536 21.416562
517 517 1  0.738502 11.816034 21.416562
518 518 1  0.738502 12.554536 20.678060
519 519 1  1.477004 11.816034 20.678060
520 520 1  1.477004 12.554536 21.416562
521 521 1  2.215506 11.816034 21.416562
522 522 1  2.215506 12.554536 20.678060
523 523 1  2.954009 11.816034 20.678060
524 524 1  2.954009 12.554536 21.416562
525 525 1  3.692511 11.816034 21.416562
526 526 1  3.692511 12.554536 20.678060
527 527 1  4.431013 11.816034 20.678060
528 528 1  4.431013 12.554536 21.416562
529 529 1  5.169515 11.816034 21.416562
530 530 1  5.169515 12.554536 20.678060
531 531 1  5.908017 11.816034 20.678060
532 532 1  5.908017 12.554536 21.416562
533 533 1  6.646519 11.816034 21.416562
534 534 1  6.646519 12.554536 20.678060
535 535 1  7.385021 11.816034 20.678060
536 536 1  7.385021 12.554536 21.416562
537 537 1  8.123524 11.816034 21.416562
538 538 1  8.123524 12.554536 20.678060
539 539 1  8.862026 11.816034 20.678060
540 540 1  8.862026 12.554536 21.416562
541 541 1  9.600528 11.816034 21.416562
542 542 1  9.600528 12.554536 20.678060
543 543 1  10.339030 11.816034 20.678060
544 544 1  10.339030 12.554536 21.416562
545 545 1  11.077532 11.816034 21.416562
546 546 1  11.077532 12.554536 20.678060
547 547 1  11.816034 11.816034 20.678060
548 548 1  11.816034 12.554536 21.416562
549 549 1  12.554536 11.816034 21.416562
550 550 1  12.554536 12.554536 20.678060
551 551 1  13.293038 11.816034 20.678060
552 552 1  13.293038 12.554536 21.416562
553 553 1  14.031541 11.816034 21.416562
554 554 1  14.031541 12.554536 20.678060
555 555 1  0.000000 13.293038 20.678060
556 556 1  0.000000 14.031541 21.416562
557 557 1  0.738502 13.293038 21.416562
558 558 1  0.738502 14.031541 20.678060
559 559 1  1.477004 13.293038 20.678060
560 560 1  1.477004 14.031541 21.416562
561 561 1  2.215506 13.293038 21.416562
562 562 1  2.215506 14.031541 20.678060
563 563 1  2.954009 13.293038 20.678060
564 564 1  2.954009 14.031541 21.416562
565 565 1  3.692511 13.293038 21.416562
566 566 1  3.692511 14.031541 20.678060
567 567 1  4.431013 13.293038 20.678060
568 568 1  4.431013 14.031541 21.416562
569 569 1  5.169515 13.293038 21.416562
570 570 1  5.169515 14.031541 20.678060
571 571 1  5.908017 13.293038 20.678060
572 572 1  5.908017 14.031541 21.416562
573 573 1  6.646519 13.293038 21.416562
574 574 1  6.646519 14.031541 20.678060
575 575 1  7.385021 13.293038 20.678060
576 576 1  7.385021 14.031541 21.416562
577 577 1  8.123524 13.293038 21.416562
578 578 1  8.123524 14.031541 20.678060
579 579 1  8.862026 13.293038 20.678060
580 580 1  8.862026 14.031541 21.416562
581 581 1  9.600528 13.293038 21.416562
582 582 1  9.600528 14.031541 20.678060
583 583 1  10.339030 13.293038 20.678060
584 584 1  10.339030 14.031541 21.416562
585 585 1  11.077532 13.293038 21.416562
586 586 1  11.077532 14.031541 20.678060
587 587 1  11.816034 13.293038 20.678060
588 588 1  11.816034 14.031541 21.416562
589 589 1  12.554536 13.293038 21.416562
590 590 1  12.554536 14.031541 20.678060
591 591 1  13.293038 13.293038 20.678060
592 592 1  13.293038 14.031541 21.416562
593 593 1  14.031541 13.293038 21.416562
594 594 1  14.031541 14.031541 20.678060
595 595 1  0.000000 0.000000 22.155064
596 596 1  0.000000 0.738502 22.893566
597 597 1  0.738502 0.000000 22.893566
598 598 1  0.738502 0.738502 22.155064
599 599 1  1.477004 0.000000 22.155064
600 600 1  1.477004 0.738502 22.893566
601 601 1  2.215506 0.000000 22.893566
602 602 1  2.215506 0.738502 22.155064
603 603 1  2.954009 0.000000 22.155064
604 604 1  2.954009 0.738502 22.893566
605 605 1  3.692511 0.000000 22.893566
606 606 1  3.692511 0.738502 22.155064
607 607 1  4.431013 0.000000 22.155064
608 608 1  4.431013 0.738502 22.893566
609 609 1  5.169515 0.000000 22.893566
610 610 1  5.169515 0.738502 22.155064
611 611 1  5.908017 0.000000 22.155064
612 612 1  5.908017 0.738502 22.893566
613 613 1  6.646519 0.000000 22.893566
614 614 1  6.646519 0.738502 22.155064
615 615 1  7.385021 0.000000 22.155064
616 616 1  7.385021 0.738502 22.893566
617 617 1  8.123524 0.000000 22.893566
618 618 1  8.123524 0.738502 22.155064
619 619 1  8.862026 0.000000 22.155064
620 620 1  8.862026 0.738502 22.893566
621 621 1  9.600528 0.000000 22.893566
622 622 1  9.600528 0.738502 22.155064
623 623 1  10.339030 0.000000 22.155064
624 624 1  10.339030 0.738502 22.893566
625 625 1  11.077532 0.000000 22.893566
626 626 1  11.077532 0.738502 22.155064
627 627 1  11.816034 0.000000 22.155064
628 628 1  11.816034 0.738502 22.893566
629 629 1  12.554536 0.000000 22.893566
630 630 1  12.554536 0.738502 22.155064
631 631 1  13.293038 0.000000 22.155064
632 632 1  13.293038 0.738502 22.893566
633 633 1  14.031541 0.000000 22.893566
634 634 1  14.031541 0.738502 22.155064
635 635 1  0.000000 1.477004 22.155064
636 636 1  0.000000 2.215506 22.893566
637 637 1  0.738502 1.477004 22.893566
638 638 1  0.738502 2.215506 22.155064
639 639 1  1.477004 1.477004 22.155064
640 640 1  1.477004 2.215506 22.893566
641 641 1  2.215506 1.477004 22.893566
642 642 1  2.215506 2.215506 22.155064
643 643 1  2.954009 1.477004 22.155064
644 644 1  2.954009 2.215506 22.893566
645 645 1  3.692511 1.477004 22.893566
646 646 1  3.692511 2.215506 22.155064
647 647 1  4.431013 1.477004 22.155064
648 648 1  4.431013 2.215506 22.893566
649 649 1  5.169515 1.477004 22.893566
650 650 1  5.169515 2.215506 22.155064
651 651 1  5.908017 1.477004 22.155064
652 652 1  5.908017 2.215506 22.893566
653 653 1  6.646519 1.477004 22.893566
654 654 1  6.646519 2.215506 22.155064
655 655 1  7.385021 1.477004 22.155064
656 656 1  7.385021 2.215506 22.893566
657 657 1  8.123524 1.477004 22.893566
658 658 1  8.123524 2.215506 22.155064
659 659 1  8.862026 1.477004 22.155064
660 660 1  8.862026 2.215506 22.893566
661 661 1  9.600528 1.477004 22.893566
662 662 1  9.600528 2.215506 22.155064
663 663 1  10.339030 1.477004 22.155064
664 664 1  10.339030 2.215506 22.893566
665 665 1  11.077532 1.477004 22.893566
666 666 1  11.077532 2.215506 22.155064
667 667 1  11.816034 1.477004 22.155064
668 668 1  11.816034 2.215506 22.893566
669 669 1  12.554536 1.477004 22.893566
670 670 1  12.554536 2.215506 22.155064
671 671 1  13.293038 1.477004 22.155064
672 672 1  13.293038 2.215506 22.893566
673 673 1  14.031541 1.477004 22.893566
674 674 1  14.031541 2.215506 22.155064
675 675 1  0.000000 2.954009 22.155064
676 676 1  0.000000 3.692511 22.893566
677 677 1  0.738502 2.954009 22.893566
678 678 1  0.738502 3.692511 22.155064
679 679 1  1.477004 2.954009 22.155064
680 680 1  1.477004 3.692511 22.893566
681 681 1  2.215506 2.954009 22.893566
682 682 1  2.215506 3.692511 22.155064
683 683 1  2.954009 2.954009 22.155064
684 684 1  2.954009 3.692511 22.893566
685 685 1  3.692511 2.954009 22.893566
686 686 1  3.692511 3.692511 22.155064
687 687 1  4.431013 2.954009 22.155064
688 688 1  4.431013 3.692511 22.893566
689 689 1  5.169515 2.954009 22.893566
690 690 1  5.908017 2.954009 22.155064
691 691 1  6.646519 2.954009 22.893566
692 692 1  7.385021 2.954009 22.155064
693 693 1  8.123524 2.954009 22.893566
694 694 1  8.862026 2.954009 22.155064
695 695 1  9.600528 2.954009 22.893566
696 696 1  10.339030 2.954009 22.155064
697 697 1  10.339030 3.692511 22.893566
698 698 1  11.077532 2.954009 22.893566
699 699 1  11.077532 3.692511 22.155064
700 700 1  11.816034 2.954009 22.155064
701 701 1  11.816034 3.692511 22.893566
702 702 1  12.554536 2.954009 22.893566
703 703 1  12.554536 3.692511 22.155064
704 704 1  13.293038 2.954009 22.155064
705 705 1  13.293038 3.692511 22.893566
706 706 1  14.031541 2.954009 22.893566
707 707 1  14.031541 3.692511 22.155064
708 708 1  0.000000 4.431013 22.155064
709 709 1  0.000000 5.169515 22.893566
710 710 1  0.738502 4.431013 22.893566
711 711 1  0.738502 5.169515 22.155064
712 712 1  1.477004 4.431013 22.155064
713 713 1  1.477004 5.169515 22.893566
714 714 1  2.215506 4.431013 22.893566
715 715 1  2.215506 5.169515 22.155064
716 716 1  2.954009 4.431013 22.155064
717 717 1  2.954009 5.169515 22.893566
718 718 1  3.692511 4.431013 22.893566
719 719 1  11.077532 4.431013 22.893566
720 720 1  11.816034 4.431013 22.155064
721 721 1  11.816034 5.169515 22.893566
722 722 1  12.554536 4.431013 22.893566
723 723 1  12.554536 5.169515 22.155064
724 724 1  13.293038 4.431013 22.155064
725 725 1  13.293038 5.169515 22.893566
726 726 1  14.031541 4.431013 22.893566
727 727 1  14.031541 5.169515 22.155064
728 728 1  0.000000 5.908017 22.155064
729 729 1  0.000000 6.646519 22.893566
730 730 1  0.738502 5.908017 22.893566
731 731 1  0.738502 6.646519 22.155064
732 732 1  1.477004 5.908017 22.155064
733 733 1  1.477004 6.646519 22.893566
734 734 1  2.215506 5.908017 22.893566
735 735 1  2.215506 6.646519 22.155064
736 736 1  2.954009 5.908017 22.155064
737 737 1  2.954009 6.646519 22.893566
738 738 1  11.816034 5.908017 22.155064
739 739 1  11.816034 6.646519 22.893566
740 740 1  12.554536 5.908017 22.893566
741 741 1  12.554536 6.646519 22.155064
742 742 1  13.293038 5.908017 22.155064
743 743 1  13.293038 6.646519 22.893566
744 744 1  14.031541 5.908017 22.893566
745 745 1  14.031541 6.646519 22.155064
746 746 1  0.000000 7.385021 22.155064
747 747 1  0.000000 8.123524 22.893566
748 748 1  0.738502 7.385021 22.893566
749 749 1  0.738502 8.123524 22.155064
750 750 1  1.477004 7.385021 22.155064
751 751 1  1.477004 8.123524 22.893566
752 752 1  2.215506 7.385021 22.893566
753 753 1  2.215506 8.123524 22.155064
754 754 1  2.954009 7.385021 22.155064
755 755 1  2.954009 8.123524 22.893566