# vtk DataFile Version 3.0
CNT bonds with <4 dihedrals
ASCII
DATASET POLYDATA
POINTS 50 float
-4.6767280941 -0.7078935625 -9.9419499691
-4.6767280941 -0.7078935625 -11.3619499691
-4.334430089 -1.8853983727 -12.0719499691
-3.6990893876 -2.934220424 -11.3619499691
-2.8135931377 -3.7832011955 -12.0719499691
-1.7389609245 -4.3738373853 -11.3619499691
-0.5476082913 -4.6663281758 -12.0719499691
0.6783685999 -4.6405180139 -11.3619499691
1.8563556403 -4.2981461523 -12.0719499691
2.9051776916 -3.6628054508 -11.3619499691
3.7541584632 -2.7773092009 -12.0719499691
4.3447946529 -1.7026769877 -11.3619499691
4.6372854434 -0.5113243546 -12.0719499691
4.6114752816 0.7146525367 -11.3619499691
4.2691034199 1.8926395771 -12.0719499691
3.6337627185 2.9414616284 -11.3619499691
2.7482664685 3.7904423999 -12.0719499691
1.6736342554 4.3810785897 -11.3619499691
0.4822816222 4.6735693802 -12.0719499691
-0.743695269 4.6477592183 -11.3619499691
-1.9216823094 4.3053873567 -12.0719499691
-2.9705043608 3.6700466552 -11.3619499691
-3.8194851323 2.7845504053 -12.0719499691
-4.410121322 1.7099181921 -11.3619499691
-4.410121322 1.7099181921 -9.9419499691
-4.4102099047 1.7096909185 9.9418524707
-4.334430089 -1.8853983727 12.072274964
-4.6767280941 -0.7078935625 11.362274964
-4.6767280941 -0.7078935625 9.942274964
-3.6990893876 -2.934220424 11.362274964
-2.8135931377 -3.7832011955 12.072274964
-1.7389609245 -4.3738373853 11.362274964
-0.5476082913 -4.6663281758 12.072274964
0.6783685999 -4.6405180139 11.362274964
1.8563556403 -4.2981461523 12.072274964
2.9051776916 -3.6628054508 11.362274964
3.7541584632 -2.7773092009 12.072274964
4.3447946529 -1.7026769877 11.362274964
4.6372854434 -0.5113243546 12.072274964
4.6114752816 0.7146525367 11.362274964
4.2691034199 1.8926395771 12.072274964
3.6337627185 2.9414616284 11.362274964
2.7482664685 3.7904423999 12.072274964
1.6736342554 4.3810785897 11.362274964
0.4822816222 4.6735693802 12.072274964
-0.743695269 4.6477592183 11.362274964
-1.9216823094 4.3053873567 12.072274964
-2.9705043608 3.6700466552 11.362274964
-3.8194851323 2.7845504053 12.072274964
-4.410121322 1.7099181921 11.362274964

LINES 48 144
2 0 1
2 1 2
2 2 3
2 3 4
2 4 5
2 5 6
2 6 7
2 7 8
2 8 9
2 9 10
2 10 11
2 11 12
2 12 13
2 13 14
2 14 15
2 15 16
2 16 17
2 17 18
2 18 19
2 19 20
2 20 21
2 21 22
2 22 23
2 23 24
2 26 29
2 29 30
2 27 28
2 30 31
2 31 32
2 32 33
2 33 34
2 34 35
2 35 36
2 36 37
2 37 38
2 38 39
2 39 40
2 40 41
2 41 42
2 42 43
2 43 44
2 44 45
2 45 46
2 46 47
2 47 48
2 25 49
2 48 49
2 26 27

CELL_DATA 48
SCALARS dihedrals_per_bond int 1
LOOKUP_TABLE default
2
1
2
2
2
2
2
2
2
2
2
2
2
2
2
2
2
2
2
2
2
2
1
2
2
2
2
2
2
2
2
2
2
2
2
2
2
2
2
2
2
2
2
2
2
2
1
1
