LAMMPS (10 Sep 2025 - Development - patch_10Sep2025-660-g792d014343)
OMP_NUM_THREADS environment is not set. Defaulting to 1 thread.
  using 1 OpenMP thread(s) per MPI task
# Defining the essential variables

units lj
dimension 3
atom_style atomic
boundary p p p




# Creating  a large box

region my_box block 0 30 0 30 0 30
create_box 1 my_box
Created orthogonal box = (0 0 0) to (30 30 30)
  1 by 1 by 1 MPI processor grid





# Filling up the box with the particles

create_atoms 1 random 5000 87910 my_box
Created 5000 atoms
  using lattice units in orthogonal box = (0 0 0) to (30 30 30)
  create_atoms CPU = 0.001 seconds




# Defining the particle's properties and switching off the interaction

mass 1 2.0

pair_style lj/cut 2.5
pair_style none




# Creating initial velocity distribution for a given temperature

velocity all create 4.0 12345 mom yes rot no  # Assign initial velocities




# Setting up Brownian dynamics through the Langevin thermostat at a particular temperature

fix my_thermo_stat all langevin 1  1  0.1 89080




# Applying an integrator to update the position and the velocity

fix integrator all nve




# Setting up time achieved by each simulation step

timestep 0.005




# Specifying the parameters to print on the terminal

thermo 100
thermo_style custom step temp ke pe press






# Apply another compute to calculate the mean squared displacement

compute msd_all all msd
fix msd_output all ave/time 100 1 100 c_msd_all file msd.dat mode vector





# Running the simulation

run 40000
WARNING: No pairwise cutoff or binsize set. Atom sorting therefore disabled. (src/atom.cpp:2486)
WARNING: Communication cutoff is 0.0. No ghost atoms will be generated. Energies and forces may be wrong and atoms may get lost. (src/comm_brick.cpp:188)
Per MPI rank memory allocation (min/avg/max) = 2.672 | 2.672 | 2.672 Mbytes
   Step          Temp          KinEng         PotEng         Press     
         0   4              5.9988         0              0.74059259   
       100   1.0188011      1.5278961      0              0.18862915   
       200   0.9912527      1.4865817      0              0.1835286    
       300   1.0019181      1.5025766      0              0.18550328   
       400   1.0005366      1.5005048      0              0.18524751   
       500   1.0116332      1.5171463      0              0.18730201   
       600   0.99375097     1.4903283      0              0.18399115   
       700   0.99547306     1.4929109      0              0.18430999   
       800   0.99219731     1.4879983      0              0.1837035    
       900   1.0016261      1.5021386      0              0.18544921   
      1000   0.99517542     1.4924646      0              0.18425489   
      1100   1.0063839      1.5092739      0              0.18633011   
      1200   1.0117059      1.5172553      0              0.18731547   
      1300   0.98981609     1.4844272      0              0.18326262   
      1400   0.98666304     1.4796986      0              0.18267883   
      1500   0.98584176     1.4784669      0              0.18252678   
      1600   0.99572907     1.4932949      0              0.18435739   
      1700   0.99353474     1.490004       0              0.18395112   
      1800   1.0057323      1.5082968      0              0.18620948   
      1900   1.0019471      1.5026201      0              0.18550866   
      2000   0.9976731      1.4962103      0              0.18471733   
      2100   1.0026723      1.5037077      0              0.18564292   
      2200   0.98450101     1.4764562      0              0.18227854   
      2300   1.0148236      1.521931       0              0.18789271   
      2400   1.0114045      1.5168033      0              0.18725967   
      2500   1.0026358      1.5036528      0              0.18563615   
      2600   0.99176065     1.4873434      0              0.18362265   
      2700   1.0068689      1.5100012      0              0.1864199    
      2800   0.99696868     1.4951539      0              0.1845869    
      2900   0.99059282     1.485592       0              0.18340643   
      3000   0.99247727     1.4884182      0              0.18375533   
      3100   1.003018       1.5042261      0              0.18570693   
      3200   1.0119187      1.5175745      0              0.18735487   
      3300   1.0018081      1.5024117      0              0.18548292   
      3400   0.99896877     1.4981535      0              0.18495722   
      3500   0.99956886     1.4990534      0              0.18506832   
      3600   1.0123606      1.5182373      0              0.1874367    
      3700   1.0038147      1.5054209      0              0.18585443   
      3800   1.0137433      1.5203108      0              0.18769269   
      3900   0.99810151     1.4968528      0              0.18479665   
      4000   1.0037187      1.5052769      0              0.18583665   
      4100   0.98046561     1.4704043      0              0.18153139   
      4200   1.0047805      1.5068692      0              0.18603324   
      4300   0.99455866     1.4915396      0              0.18414069   
      4400   0.99267132     1.4887092      0              0.18379126   
      4500   0.99415726     1.4909376      0              0.18406638   
      4600   0.99234404     1.4882184      0              0.18373066   
      4700   0.99574989     1.4933261      0              0.18436125   
      4800   1.0073445      1.5107145      0              0.18650797   
      4900   0.99993665     1.499605       0              0.18513642   
      5000   1.0175134      1.5259649      0              0.18839073   
      5100   1.0008167      1.5009248      0              0.18529935   
      5200   0.99189666     1.4875474      0              0.18364783   
      5300   0.98284195     1.4739681      0              0.18197137   
      5400   1.0014351      1.5018522      0              0.18541385   
      5500   1.0092744      1.5136088      0              0.18686529   
      5600   0.98199585     1.4726992      0              0.18181471   
      5700   1.0109039      1.5160526      0              0.18716698   
      5800   0.98968183     1.4842258      0              0.18323776   
      5900   1.0147826      1.5218695      0              0.18788512   
      6000   0.99287627     1.4890165      0              0.1838292    
      6100   1.020871       1.5310003      0              0.18901238   
      6200   0.97675622     1.4648413      0              0.1808446    
      6300   0.98747245     1.4809124      0              0.18282869   
      6400   0.99861335     1.4976204      0              0.18489141   
      6500   1.0132875      1.5196272      0              0.1876083    
      6600   0.98896838     1.4831559      0              0.18310566   
      6700   0.97727313     1.4656165      0              0.18094031   
      6800   0.98480129     1.4769065      0              0.18233414   
      6900   1.0016248      1.5021366      0              0.18544897   
      7000   1.0202606      1.5300848      0              0.18889936   
      7100   1.0015253      1.5019875      0              0.18543055   
      7200   1.002638       1.5036562      0              0.18563656   
      7300   0.97624411     1.4640733      0              0.18074979   
      7400   0.96649417     1.4494513      0              0.17894461   
      7500   1.0035462      1.5050182      0              0.18580472   
      7600   1.0022877      1.5031309      0              0.18557172   
      7700   0.9972294      1.4955449      0              0.18463518   
      7800   0.99082409     1.4859389      0              0.18344925   
      7900   1.0127422      1.5188095      0              0.18750735   
      8000   1.0089644      1.513144       0              0.1868079    
      8100   1.0285017      1.542444       0              0.19042518   
      8200   1.0208374      1.5309499      0              0.18900616   
      8300   1.0068056      1.5099063      0              0.18640819   
      8400   1.0203935      1.5302841      0              0.18892396   
      8500   1.0051017      1.507351       0              0.18609272   
      8600   1.0245339      1.5364934      0              0.18969055   
      8700   1.0195611      1.5290357      0              0.18876984   
      8800   1.0008969      1.5010451      0              0.1853142    
      8900   0.98923056     1.4835491      0              0.18315421   
      9000   1.0129512      1.5191229      0              0.18754603   
      9100   0.99320206     1.4895051      0              0.18388952   
      9200   1.0068413      1.5099598      0              0.18641479   
      9300   1.0073859      1.5107767      0              0.18651564   
      9400   1.0092046      1.5135041      0              0.18685235   
      9500   0.97722372     1.4655424      0              0.18093116   
      9600   1.0002499      1.5000748      0              0.18519442   
      9700   0.99945149     1.4988774      0              0.18504659   
      9800   1.0086758      1.5127111      0              0.18675446   
      9900   1.0009822      1.501173       0              0.18533001   
     10000   1.0149849      1.5221729      0              0.18792258   
     10100   1.0049665      1.5071483      0              0.18606769   
     10200   1.0013053      1.5016575      0              0.18538982   
     10300   0.98493111     1.4771012      0              0.18235817   
     10400   0.99870411     1.4977566      0              0.18490822   
     10500   0.98728733     1.4806348      0              0.18279442   
     10600   1.011926       1.5175855      0              0.18735623   
     10700   0.98017864     1.4699739      0              0.18147826   
     10800   1.0125128      1.5184654      0              0.18746486   
     10900   1.0011713      1.5014566      0              0.18536501   
     11000   1.007274       1.5106089      0              0.18649492   
     11100   0.99169495     1.4872449      0              0.18361048   
     11200   1.0091422      1.5134105      0              0.1868408    
     11300   0.98840078     1.4823046      0              0.18300057   
     11400   1.0121449      1.5179137      0              0.18739675   
     11500   1.0026013      1.5036012      0              0.18562978   
     11600   0.98531908     1.477683       0              0.18243      
     11700   0.98960653     1.4841129      0              0.18322382   
     11800   1.0201251      1.5298816      0              0.18887427   
     11900   1.0050242      1.5072347      0              0.18607836   
     12000   0.99578229     1.4933747      0              0.18436725   
     12100   0.99139381     1.4867933      0              0.18355473   
     12200   1.0065494      1.5095222      0              0.18636076   
     12300   0.99856838     1.497553       0              0.18488309   
     12400   1.0198953      1.529537       0              0.18883173   
     12500   0.9954504      1.492877       0              0.1843058    
     12600   1.0031792      1.5044678      0              0.18573676   
     12700   0.99737681     1.495766       0              0.18466247   
     12800   1.0082986      1.5121455      0              0.18668463   
     12900   1.0056101      1.5081134      0              0.18618684   
     13000   1.0067846      1.5098748      0              0.1864043    
     13100   0.99455333     1.4915316      0              0.18413971   
     13200   1.0027807      1.5038702      0              0.18566298   
     13300   1.0019503      1.5026248      0              0.18550924   
     13400   0.99606936     1.4938052      0              0.1844204    
     13500   1.021973       1.5326529      0              0.18921641   
     13600   0.99283628     1.4889566      0              0.1838218    
     13700   0.98931502     1.4836757      0              0.18316984   
     13800   1.0294786      1.5439091      0              0.19060606   
     13900   1.0046238      1.5066343      0              0.18600423   
     14000   0.99454929     1.4915256      0              0.18413896   
     14100   1.0065497      1.5095226      0              0.18636081   
     14200   1.0033255      1.5046872      0              0.18576386   
     14300   0.98407907     1.4758234      0              0.18220042   
     14400   1.0255108      1.5379586      0              0.18987143   
     14500   0.98987815     1.4845203      0              0.18327411   
     14600   1.0031417      1.5044117      0              0.18572983   
     14700   1.0094231      1.5138318      0              0.18689282   
     14800   1.0085432      1.5125122      0              0.1867299    
     14900   0.98570823     1.4782666      0              0.18250205   
     15000   0.99347345     1.4899121      0              0.18393977   
     15100   1.0141755      1.520959       0              0.18777272   
     15200   1.0091155      1.5133705      0              0.18683586   
     15300   0.9878428      1.4814678      0              0.18289726   
     15400   1.0020013      1.5027013      0              0.18551869   
     15500   1.0131323      1.5193946      0              0.18757957   
     15600   0.99698194     1.4951738      0              0.18458936   
     15700   0.99375098     1.4903283      0              0.18399115   
     15800   0.99893685     1.4981056      0              0.18495131   
     15900   0.99711304     1.4953704      0              0.18461363   
     16000   0.99423181     1.4910494      0              0.18408018   
     16100   0.99445448     1.4913834      0              0.18412141   
     16200   1.00977        1.5143521      0              0.18695705   
     16300   0.9917466      1.4873224      0              0.18362005   
     16400   1.0036406      1.5051599      0              0.18582221   
     16500   0.98816329     1.4819485      0              0.1829566    
     16600   0.98351316     1.4749747      0              0.18209564   
     16700   1.0112403      1.5165571      0              0.18722928   
     16800   0.99453233     1.4915001      0              0.18413582   
     16900   1.0001017      1.4998525      0              0.18516698   
     17000   0.99758675     1.4960809      0              0.18470134   
     17100   1.0064688      1.5094012      0              0.18634583   
     17200   0.99047412     1.485414       0              0.18338445   
     17300   0.99331709     1.4896776      0              0.18391082   
     17400   0.99697471     1.495163       0              0.18458802   
     17500   1.0096469      1.5141674      0              0.18693425   
     17600   1.0057378      1.508305       0              0.18621049   
     17700   1.0135288      1.5199891      0              0.18765297   
     17800   1.0017224      1.5022831      0              0.18546704   
     17900   1.0001523      1.4999284      0              0.18517634   
     18000   0.99603849     1.4937589      0              0.18441468   
     18100   0.98535275     1.4777335      0              0.18243624   
     18200   1.0030146      1.504221       0              0.18570629   
     18300   1.0169347      1.525097       0              0.18828358   
     18400   1.0011781      1.5014667      0              0.18536626   
     18500   0.98140218     1.4718088      0              0.1817048    
     18600   0.99707956     1.4953202      0              0.18460743   
     18700   0.98628479     1.4791313      0              0.1826088    
     18800   1.0021674      1.5029504      0              0.18554943   
     18900   0.99477421     1.4918629      0              0.1841806    
     19000   1.0063061      1.5091573      0              0.18631571   
     19100   0.98219683     1.4730006      0              0.18185192   
     19200   1.0195244      1.5289807      0              0.18876305   
     19300   0.99577449     1.493363       0              0.1843658    
     19400   1.0165144      1.5244667      0              0.18820576   
     19500   0.99907642     1.4983149      0              0.18497715   
     19600   0.99801274     1.4967197      0              0.18478021   
     19700   0.9964939      1.4944419      0              0.184499     
     19800   1.0049567      1.5071336      0              0.18606588   
     19900   0.98847884     1.4824217      0              0.18301503   
     20000   0.99427208     1.4911098      0              0.18408763   
     20100   0.99231151     1.4881696      0              0.18372464   
     20200   1.0024835      1.5034244      0              0.18560796   
     20300   1.0120278      1.5177381      0              0.18737508   
     20400   0.99755712     1.4960364      0              0.18469585   
     20500   1.0083816      1.51227        0              0.18669999   
     20600   0.99869467     1.4977424      0              0.18490647   
     20700   0.99199754     1.4876987      0              0.18366651   
     20800   0.98768994     1.4812386      0              0.18286896   
     20900   1.0024702      1.5034045      0              0.1856055    
     21000   0.98934502     1.4837207      0              0.1831754    
     21100   1.0031954      1.5044921      0              0.18573976   
     21200   0.99158079     1.4870737      0              0.18358935   
     21300   0.99374806     1.490324       0              0.18399061   
     21400   1.000723       1.5007842      0              0.185282     
     21500   0.98252555     1.4734936      0              0.18191279   
     21600   0.99193508     1.487605       0              0.18365494   
     21700   1.010425       1.5153344      0              0.18707833   
     21800   1.0026109      1.5036156      0              0.18563155   
     21900   1.0170739      1.5253057      0              0.18830934   
     22000   1.0037451      1.5053165      0              0.18584155   
     22100   1.014699       1.521744       0              0.18786963   
     22200   1.0076839      1.5112235      0              0.18657081   
     22300   0.98458486     1.4765819      0              0.18229406   
     22400   1.0138547      1.5204779      0              0.18771332   
     22500   0.98959219     1.4840914      0              0.18322116   
     22600   1.0184805      1.5274152      0              0.18856978   
     22700   0.99809752     1.4968468      0              0.18479591   
     22800   0.99848439     1.497427       0              0.18486754   
     22900   0.99725421     1.4955821      0              0.18463977   
     23000   0.99118055     1.4864735      0              0.18351524   
     23100   1.0210071      1.5312044      0              0.18903758   
     23200   0.99952357     1.4989855      0              0.18505994   
     23300   1.0012879      1.5016315      0              0.1853866    
     23400   0.99592515     1.4935889      0              0.1843937    
     23500   0.99711342     1.495371       0              0.1846137    
     23600   1.0012319      1.5015476      0              0.18537624   
     23700   0.98182656     1.4724453      0              0.18178337   
     23800   1.0097933      1.514387       0              0.18696136   
     23900   0.9913382      1.4867099      0              0.18354443   
     24000   0.992874       1.4890131      0              0.18382878   
     24100   1.0142498      1.5210704      0              0.18778647   
     24200   1.0079314      1.5115947      0              0.18661663   
     24300   1.0165144      1.5244666      0              0.18820576   
     24400   0.98139438     1.4717972      0              0.18170335   
     24500   0.99988066     1.499521       0              0.18512605   
     24600   0.98586532     1.4785022      0              0.18253114   
     24700   0.99786006     1.4964907      0              0.18475194   
     24800   1.0036035      1.5051042      0              0.18581533   
     24900   0.99713484     1.4954031      0              0.18461767   
     25000   1.0110424      1.5162602      0              0.18719262   
     25100   1.0049623      1.5071419      0              0.18606691   
     25200   0.98560823     1.4781167      0              0.18248354   
     25300   0.9913654      1.4867507      0              0.18354947   
     25400   1.0000927      1.499839       0              0.18516531   
     25500   1.0041738      1.5059595      0              0.18592092   
     25600   0.99205026     1.4877778      0              0.18367627   
     25700   1.0066455      1.5096662      0              0.18637855   
     25800   1.0106801      1.5157169      0              0.18712555   
     25900   1.0164658      1.5243937      0              0.18819675   
     26000   1.0139923      1.5206843      0              0.1877388    
     26100   0.99365451     1.4901837      0              0.18397329   
     26200   0.9999056      1.4995584      0              0.18513067   
     26300   1.0125808      1.5185674      0              0.18747746   
     26400   1.0123537      1.5182269      0              0.18743542   
     26500   0.98964539     1.4841712      0              0.18323101   
     26600   0.99823001     1.4970455      0              0.18482044   
     26700   1.0073416      1.5107103      0              0.18650744   
     26800   0.97277606     1.4588723      0              0.18010769   
     26900   0.99572018     1.4932816      0              0.18435575   
     27000   0.99006325     1.4847978      0              0.18330838   
     27100   1.0093338      1.5136979      0              0.18687629   
     27200   0.98914563     1.4834217      0              0.18313848   
     27300   1.0392267      1.5585283      0              0.1924109    
     27400   0.9768381      1.4649641      0              0.18085977   
     27500   0.99985639     1.4994846      0              0.18512156   
     27600   1.0033637      1.5047445      0              0.18577092   
     27700   0.99741818     1.4958281      0              0.18467013   
     27800   0.98922492     1.4835406      0              0.18315316   
     27900   1.0043684      1.5062512      0              0.18595694   
     28000   0.9991447      1.4984173      0              0.18498979   
     28100   1.0058334      1.5084483      0              0.18622818   
     28200   1.002941       1.5041105      0              0.18569266   
     28300   1.0007935      1.5008901      0              0.18529507   
     28400   1.005905       1.5085558      0              0.18624145   
     28500   1.0037162      1.5052732      0              0.1858362    
     28600   1.0123029      1.5181506      0              0.18742601   
     28700   1.0056893      1.5082322      0              0.1862015    
     28800   0.99273189     1.4888         0              0.18380247   
     28900   1.0035264      1.5049886      0              0.18580106   
     29000   0.99807801     1.4968176      0              0.18479229   
     29100   1.0121039      1.5178522      0              0.18738916   
     29200   1.0106567      1.5156819      0              0.18712122   
     29300   0.98386371     1.4755004      0              0.18216054   
     29400   0.98901005     1.4832184      0              0.18311338   
     29500   1.0216003      1.532094       0              0.1891474    
     29600   1.0082303      1.5120429      0              0.18667197   
     29700   0.99567804     1.4932184      0              0.18434795   
     29800   0.97476165     1.46185        0              0.18047531   
     29900   1.0138449      1.5204632      0              0.18771151   
     30000   0.98650915     1.4794678      0              0.18265034   
     30100   0.9835096      1.4749694      0              0.18209498   
     30200   0.98438567     1.4762832      0              0.18225718   
     30300   1.0090852      1.5133251      0              0.18683026   
     30400   1.019876       1.5295081      0              0.18882816   
     30500   1.0025359      1.5035031      0              0.18561767   
     30600   0.99014123     1.4849148      0              0.18332282   
     30700   0.97973461     1.469308       0              0.18139605   
     30800   0.99738674     1.4957809      0              0.18466431   
     30900   0.99235906     1.4882409      0              0.18373344   
     31000   0.99761832     1.4961282      0              0.18470718   
     31100   0.9983422      1.4972138      0              0.18484121   
     31200   0.98999381     1.4846937      0              0.18329552   
     31300   0.98690061     1.4800548      0              0.18272282   
     31400   0.99274409     1.4888183      0              0.18380473   
     31500   0.99847769     1.497417       0              0.1848663    
     31600   1.0195904      1.5290798      0              0.18877528   
     31700   1.011166       1.5164456      0              0.18721551   
     31800   1.0132584      1.5195836      0              0.18760291   
     31900   1.0107368      1.515802       0              0.18713605   
     32000   1.0208829      1.5310181      0              0.18901458   
     32100   1.0078048      1.5114048      0              0.18659319   
     32200   1.0158432      1.52346        0              0.18808148   
     32300   1.0036185      1.5051267      0              0.18581811   
     32400   1.0044818      1.5064214      0              0.18597795   
     32500   1.0140501      1.520771       0              0.18774951   
     32600   1.0096426      1.514161       0              0.18693345   
     32700   0.98922457     1.4835401      0              0.1831531    
     32800   1.0060362      1.5087525      0              0.18626574   
     32900   1.0047027      1.5067527      0              0.18601885   
     33000   0.98800045     1.4817043      0              0.18292645   
     33100   1.0027412      1.503811       0              0.18565568   
     33200   1.0007489      1.5008232      0              0.18528681   
     33300   0.99694641     1.4951205      0              0.18458278   
     33400   0.99501393     1.4922224      0              0.18422499   
     33500   1.0048422      1.5069618      0              0.18604466   
     33600   0.99328759     1.4896334      0              0.18390536   
     33700   0.98270924     1.473769       0              0.1819468    
     33800   1.008172       1.5119556      0              0.18666118   
     33900   1.0171436      1.5254102      0              0.18832224   
     34000   0.9957344      1.4933029      0              0.18435838   
     34100   1.0106414      1.515659       0              0.18711839   
     34200   0.99767068     1.4962067      0              0.18471688   
     34300   0.9821787      1.4729734      0              0.18184857   
     34400   1.0004375      1.5003561      0              0.18522915   
     34500   0.98826163     1.482096       0              0.18297481   
     34600   1.0026807      1.5037203      0              0.18564448   
     34700   0.99914886     1.4984235      0              0.18499056   
     34800   0.99247613     1.4884165      0              0.18375512   
     34900   1.0047062      1.506758       0              0.1860195    
     35000   1.0046272      1.5066394      0              0.18600486   
     35100   0.98264648     1.4736749      0              0.18193518   
     35200   1.0067856      1.5098764      0              0.1864045    
     35300   1.0131813      1.5194681      0              0.18758865   
     35400   0.97828288     1.4671308      0              0.18112726   
     35500   1.0052104      1.507514       0              0.18611284   
     35600   1.0031746      1.504461       0              0.18573593   
     35700   0.99887418     1.4980116      0              0.18493971   
     35800   0.99856574     1.497549       0              0.1848826    
     35900   0.99335763     1.4897384      0              0.18391832   
     36000   1.0106542      1.515678       0              0.18712075   
     36100   0.98776957     1.481358       0              0.18288371   
     36200   1.0097612      1.5143389      0              0.18695542   
     36300   1.0210177      1.5312203      0              0.18903954   
     36400   1.0127249      1.5187835      0              0.18750414   
     36500   0.99334045     1.4897127      0              0.18391515   
     36600   1.0103297      1.5151914      0              0.18706066   
     36700   1.0017132      1.5022693      0              0.18546534   
     36800   1.0168145      1.5249167      0              0.18826132   
     36900   1.0224406      1.5333541      0              0.18930298   
     37000   0.98575855     1.4783421      0              0.18251137   
     37100   1.0123964      1.5182909      0              0.18744333   
     37200   0.98767322     1.4812135      0              0.18286587   
     37300   0.99299362     1.4891925      0              0.18385093   
     37400   1.0098659      1.5144959      0              0.1869748    
     37500   0.99808711     1.4968312      0              0.18479398   
     37600   1.0049654      1.5071467      0              0.18606749   
     37700   1.0098519      1.5144749      0              0.18697222   
     37800   1.0103749      1.5152592      0              0.18706903   
     37900   0.9955046      1.4929582      0              0.18431583   
     38000   1.0082164      1.5120222      0              0.18666941   
     38100   1.0270982      1.5403391      0              0.19016532   
     38200   0.99792894     1.496594       0              0.1847647    
     38300   1.018699       1.5277428      0              0.18861023   
     38400   0.99179831     1.4873999      0              0.18362962   
     38500   0.99555809     1.4930385      0              0.18432574   
     38600   0.99422421     1.491038       0              0.18407877   
     38700   1.003022       1.5042321      0              0.18570766   
     38800   0.98190228     1.4725588      0              0.18179739   
     38900   1.0082399      1.5120574      0              0.18667375   
     39000   0.99448693     1.491432       0              0.18412741   
     39100   0.99017147     1.4849602      0              0.18332841   
     39200   0.97904888     1.4682796      0              0.18126909   
     39300   0.97608356     1.4638325      0              0.18072006   
     39400   1.0173228      1.525679       0              0.18835544   
     39500   0.99568502     1.4932288      0              0.18434924   
     39600   0.99246486     1.4883995      0              0.18375303   
     39700   0.99560075     1.4931024      0              0.18433363   
     39800   0.99103568     1.4862562      0              0.18348842   
     39900   0.99451128     1.4914686      0              0.18413192   
     40000   0.99857189     1.4975583      0              0.18488374   
Loop time of 7.50087 on 1 procs for 40000 steps with 5000 atoms

Performance: 2303731.859 tau/day, 5332.713 timesteps/s, 26.664 Matom-step/s
100.0% CPU use with 1 MPI tasks x 1 OpenMP threads

MPI task timing breakdown:
Section |  min time  |  avg time  |  max time  |%varavg| %total
---------------------------------------------------------------
Pair    | 0          | 0          | 0          |   0.0 |  0.00
Neigh   | 0.0159     | 0.0159     | 0.0159     |   0.0 |  0.21
Comm    | 0.10202    | 0.10202    | 0.10202    |   0.0 |  1.36
Output  | 0.0072748  | 0.0072748  | 0.0072748  |   0.0 |  0.10
Modify  | 7.0082     | 7.0082     | 7.0082     |   0.0 | 93.43
Other   |            | 0.3675     |            |       |  4.90

Nlocal:           5000 ave        5000 max        5000 min
Histogram: 1 0 0 0 0 0 0 0 0 0
Nghost:              0 ave           0 max           0 min
Histogram: 1 0 0 0 0 0 0 0 0 0
Neighs:              0 ave           0 max           0 min
Histogram: 1 0 0 0 0 0 0 0 0 0

Total # of neighbors = 0
Ave neighs/atom = 0
Neighbor list builds = 3744
Dangerous builds = 0
Total wall time: 0:00:07
