LAMMPS (7 Feb 2024 - Update 1)
OMP_NUM_THREADS environment is not set. Defaulting to 1 thread. (src/comm.cpp:98)
  using 1 OpenMP thread(s) per MPI task
# Defining the essential variables

units lj
dimension 3
atom_style atomic
boundary p p p
pair_style lj/cut 2.5




# Creating the simulation box

region my_box block 0 15 0 15 0 90
create_box 1 my_box
Created orthogonal box = (0 0 0) to (15 15 90)
  1 by 1 by 1 MPI processor grid




# Generating the particles

create_atoms 1 random 5000 87910 my_box overlap 1.5 maxtry 50
WARNING: Only inserted 3428 particles out of 5000 (src/create_atoms.cpp:856)
Created 3428 atoms
  using lattice units in orthogonal box = (0 0 0) to (15 15 90)
  create_atoms CPU = 1.369 seconds




# Defining the particles properties and the interaction parameters

mass 1 1.0

pair_style lj/cut 2.6
pair_coeff 1  1  1.0 1.0 2.5




# Assigning the initial velocity to the particles

velocity all create 1.0 12345 mom yes rot no  # Assign initial velocities




# Applying an NpT thermostat and integrator

fix my_pressure all npt temp 0.4 0.4 1 z 10 10 1.0 couple none




# Setting up time achieved in each simulation steps in lj unit

timestep 0.005




# Specifying the parameters for printing on the terminal

thermo 100
thermo_style custom step temp ke pe press
dump 1 all custom 100 simulation_data_compressor.lammpstrj id type x y z vx vy vz




# Running the simulation

run 20000
Generated 0 of 0 mixed pair_coeff terms from geometric mixing rule
Neighbor list info ...
  update: every = 1 steps, delay = 0 steps, check = yes
  max neighbors/atom: 2000, page size: 100000
  master list distance cutoff = 2.8
  ghost atom cutoff = 2.8
  binsize = 1.4, bins = 11 11 65
  1 neighbor lists, perpetual/occasional/extra = 1 0 0
  (1) pair lj/cut, perpetual
      attributes: half, newton on
      pair build: half/bin/atomonly/newton
      stencil: half/bin/3d
      bin: standard
Per MPI rank memory allocation (min/avg/max) = 3.267 | 3.267 | 3.267 Mbytes
   Step          Temp          KinEng         PotEng         Press     
         0   1              1.4995624     -0.48619773     0.012216446  
       100   1.8732923      2.8091187     -1.4776816      0.63510937   
       200   2.3895103      3.5832199     -2.1093545      1.2727447    
       300   2.4857329      3.7275116     -2.6875695      2.2185684    
       400   2.4151515      3.6216704     -3.2525848      3.3156182    
       500   2.2621916      3.3922975     -3.7770395      4.901944     
       600   2.0466297      3.069049      -4.2374604      6.3599648    
       700   1.7679418      2.6511391     -4.5806595      7.8273317    
       800   1.5353248      2.3023155     -4.9528685      8.4568396    
       900   1.3413197      2.0113926     -5.2875687      8.6132577    
      1000   1.1359545      1.7034347     -5.501368       9.1302743    
      1100   0.97549307     1.4628128     -5.7001974      9.3422183    
      1200   0.87053489     1.3054214     -5.9074165      9.2959866    
      1300   0.7531278      1.1293622     -6.0537372      9.1783297    
      1400   0.6700251      1.0047445     -6.1413166      9.6606825    
      1500   0.59419176     0.89102764    -6.2350009      9.7084166    
      1600   0.54925084     0.82363592    -6.3425153      9.5551864    
      1700   0.48793611     0.73169065    -6.401862       9.4868742    
      1800   0.45358448     0.68017824    -6.4531777      9.6171923    
      1900   0.42268183     0.63383779    -6.4991963      9.5961955    
      2000   0.39942335     0.59896025    -6.5432519      9.4859783    
      2100   0.38162149     0.57226525    -6.5619651      9.6184017    
      2200   0.37530467     0.56279277    -6.588475       9.5850339    
      2300   0.36384387     0.5456066     -6.5927753      9.5664879    
      2400   0.36757928     0.55120807    -6.5943064      9.6056918    
      2500   0.38022076     0.57016476    -6.592764       9.6337983    
      2600   0.39541946     0.59295616    -6.5834042      9.6696745    
      2700   0.4077164      0.61139619    -6.5589368      9.8154532    
      2800   0.41832945     0.62731112    -6.5481304      9.836475     
      2900   0.42950246     0.64406575    -6.5353494      9.9946084    
      3000   0.42877014     0.6429676     -6.5511215      9.7853917    
      3100   0.42258405     0.63369116    -6.5512015      9.9146314    
      3200   0.41820771     0.62712857    -6.5823987      9.7669914    
      3300   0.39402218     0.59086085    -6.583456       9.7867321    
      3400   0.38457009     0.57668686    -6.5970623      9.7854462    
      3500   0.37527811     0.56275295    -6.6228887      9.511757     
      3600   0.37307715     0.55945247    -6.6087636      9.7819842    
      3700   0.37824213     0.56719768    -6.6199622      9.622901     
      3800   0.38347762     0.57504863    -6.6044592      9.7276848    
      3900   0.39937982     0.59889498    -6.5994288      9.7431874    
      4000   0.39837331     0.59738564    -6.5798154      9.6985033    
      4100   0.41502014     0.6223486     -6.5706526      9.8410216    
      4200   0.42346796     0.63501664    -6.5664284      9.9076902    
      4300   0.42168418     0.63234176    -6.5647009      9.9620899    
      4400   0.41608568     0.62394645    -6.5786612      9.8804933    
      4500   0.40146946     0.60202852    -6.5865079      9.8524242    
      4600   0.39654561     0.59464489    -6.6059148      9.8037348    
      4700   0.38993255     0.58472819    -6.6134746      9.8526361    
      4800   0.38400203     0.57583501    -6.6200669      9.8525544    
      4900   0.38659064     0.5797168     -6.6291638      9.8014533    
      5000   0.38434958     0.57635619    -6.6148723      9.8793688    
      5100   0.38464227     0.5767951     -6.6038607      9.8619828    
      5200   0.39967386     0.5993359     -6.6023906      9.8536759    
      5300   0.40851871     0.6125993     -6.5989624      9.7636425    
      5400   0.41694779     0.62523924    -6.5858761      9.882431     
      5500   0.41405919     0.6209076     -6.579851       9.8328562    
      5600   0.42031844     0.63029374    -6.588348       9.8552946    
      5700   0.41455929     0.62165754    -6.5863929      9.9402978    
      5800   0.41632347     0.62430303    -6.5999562      10.015616    
      5900   0.38918319     0.58360448    -6.6028106      9.8430472    
      6000   0.38915928     0.58356864    -6.6229237      9.7513288    
      6100   0.3875243      0.58111689    -6.6305961      9.7513844    
      6200   0.3849329      0.57723092    -6.6196706      9.9191893    
      6300   0.38985505     0.58461199    -6.6136978      9.9811445    
      6400   0.39170819     0.58739089    -6.6050823      9.9953372    
      6500   0.39449344     0.59156753    -6.5873801      10.072756    
      6600   0.40571796     0.60839941    -6.5839597      10.069609    
      6700   0.41733032     0.62581287    -6.584076       10.054717    
      6800   0.4160699      0.62392278    -6.5922618      9.8655849    
      6900   0.41625975     0.62420748    -6.6064286      9.7250083    
      7000   0.40780762     0.61153298    -6.5839282      10.075861    
      7100   0.40074066     0.60093563    -6.6104982      9.8143138    
      7200   0.39227009     0.58823349    -6.6145604      9.8535464    
      7300   0.38995423     0.58476071    -6.6219148      9.8906382    
      7400   0.38804461     0.58189711    -6.633531       9.8143423    
      7500   0.38280849     0.57404523    -6.6500084      9.5038869    
      7600   0.39400834     0.5908401     -6.6246792      9.9476996    
      7700   0.39092078     0.58621011    -6.6168008      9.8319434    
      7800   0.40439865     0.60642102    -6.6030876      10.009075    
      7900   0.41368874     0.62035208    -6.6047413      9.9228599    
      8000   0.41651939     0.62459683    -6.613569       9.6882721    
      8100   0.41731777     0.62579404    -6.599758       9.8675524    
      8200   0.41566123     0.62330996    -6.6037922      9.8543301    
      8300   0.40711734     0.61049787    -6.6108402      9.7718066    
      8400   0.40704152     0.61038416    -6.6049242      10.061156    
      8500   0.39074038     0.58593959    -6.6229138      9.748578     
      8600   0.39537603     0.59289104    -6.6447666      9.6412791    
      8700   0.38577764     0.57849766    -6.6307031      9.7975775    
      8800   0.38517014     0.57758666    -6.6255327      9.8692399    
      8900   0.39187656     0.58764337    -6.6230236      9.8780737    
      9000   0.39627595     0.59424052    -6.626085       9.7265695    
      9100   0.39834144     0.59733786    -6.6043323      9.8845785    
      9200   0.40486673     0.60712294    -6.5865743      10.078613    
      9300   0.41662583     0.62475644    -6.6039448      9.8616683    
      9400   0.41086869     0.61612326    -6.599978       9.8188369    
      9500   0.40925335     0.61370095    -6.6013159      9.8380373    
      9600   0.4054332      0.60797239    -6.6135327      9.7782087    
      9700   0.40239498     0.60341639    -6.6205051      9.860511     
      9800   0.3930526      0.58940691    -6.6184942      9.9366712    
      9900   0.38931025     0.58379503    -6.6307609      9.8423428    
     10000   0.38736919     0.58088429    -6.6237704      9.9761458    
     10100   0.38308446     0.57445906    -6.6328555      9.745518     
     10200   0.39492764     0.59221865    -6.6278462      9.8971147    
     10300   0.39759862     0.59622395    -6.6234314      9.8319767    
     10400   0.39678171     0.59499894    -6.5991616      9.9805014    
     10500   0.40792129     0.61170344    -6.5915136      10.084651    
     10600   0.40928061     0.61374183    -6.6073478      9.7663351    
     10700   0.4185374      0.62762296    -6.6016271      9.9711635    
     10800   0.40608089     0.60894365    -6.6069618      9.7846494    
     10900   0.40513203     0.60752076    -6.6105036      9.8870231    
     11000   0.38939931     0.58392857    -6.6048617      9.9257771    
     11100   0.39521913     0.59265576    -6.6268991      9.8688825    
     11200   0.38107954     0.57145255    -6.6191247      9.8953571    
     11300   0.39310779     0.58948967    -6.642818       9.7567244    
     11400   0.3953757      0.59289054    -6.6408143      9.7740801    
     11500   0.39592242     0.59371039    -6.6369981      9.7491664    
     11600   0.40427585     0.60623688    -6.6333509      9.7599786    
     11700   0.40063819     0.60078198    -6.6217117      9.724503     
     11800   0.40198313     0.60279879    -6.6042965      9.8661753    
     11900   0.41445081     0.62149486    -6.6184531      9.7672664    
     12000   0.41004719     0.61489136    -6.6229896      9.6439089    
     12100   0.4062833      0.60924716    -6.6047934      9.9359606    
     12200   0.40376382     0.60546906    -6.6221092      9.7858419    
     12300   0.39175111     0.58745525    -6.6210024      9.7795728    
     12400   0.39729384     0.59576692    -6.6241689      9.9405556    
     12500   0.38944966     0.58400408    -6.6339647      9.7661841    
     12600   0.38865822     0.58281726    -6.6241914      9.9439468    
     12700   0.39580095     0.59352823    -6.6383633      9.7955404    
     12800   0.39100476     0.58633605    -6.6221094      9.886587     
     12900   0.40028783     0.60025658    -6.6332114      9.7440555    
     13000   0.40023144     0.60017203    -6.6264816      9.7179282    
     13100   0.40763854     0.61127944    -6.60191        10.055444    
     13200   0.40554097     0.608134      -6.608811       9.869091     
     13300   0.40706052     0.61041266    -6.6188646      9.77128      
     13400   0.40403316     0.60587295    -6.605281       10.001718    
     13500   0.41433971     0.62132827    -6.635147       9.8396515    
     13600   0.3913652      0.58687654    -6.624163       9.8009287    
     13700   0.38718193     0.58060348    -6.6208928      9.9237693    
     13800   0.39516435     0.5925736     -6.6321057      9.9691678    
     13900   0.38818981     0.58211486    -6.6264135      10.004708    
     14000   0.38750423     0.58108678    -6.6318015      9.8728131    
     14100   0.39594666     0.59374674    -6.6226016      10.044136    
     14200   0.39548177     0.5930496     -6.6112053      10.105652    
     14300   0.3994938      0.5990659     -6.6118904      10.003771    
     14400   0.40611284     0.60899155    -6.6075413      10.05903     
     14500   0.41111115     0.61648683    -6.6315777      9.7119511    
     14600   0.4206654      0.63081403    -6.6149742      10.114778    
     14700   0.40497585     0.60728657    -6.6081089      10.063701    
     14800   0.40883817     0.61307836    -6.6166162      10.129552    
     14900   0.40040479     0.60043198    -6.6270802      9.9843949    
     15000   0.39145466     0.5870107     -6.6395321      9.8053067    
     15100   0.38831791     0.58230694    -6.6292984      9.9897307    
     15200   0.39080838     0.58604156    -6.6329756      9.9975083    
     15300   0.39242169     0.58846082    -6.6307342      10.011555    
     15400   0.39563205     0.59327496    -6.6388951      9.8296772    
     15500   0.40020865     0.60013786    -6.6370968      9.8019432    
     15600   0.40175436     0.60245574    -6.6275397      9.8267639    
     15700   0.40862815     0.61276341    -6.6202454      9.9212914    
     15800   0.4087059      0.61288001    -6.6148845      9.9419564    
     15900   0.41365676     0.62030413    -6.6146907      10.008832    
     16000   0.4128703      0.61912478    -6.6332923      9.7974592    
     16100   0.39922668     0.59866533    -6.6108118      10.050285    
     16200   0.39914379     0.59854104    -6.6310419      9.895232     
     16300   0.39132526     0.58681666    -6.6291514      9.9464982    
     16400   0.38840247     0.58243376    -6.6347777      9.9140577    
     16500   0.39035142     0.58535632    -6.6493141      9.7672055    
     16600   0.38842449     0.58246676    -6.6268038      10.027436    
     16700   0.39332837     0.58982045    -6.635287       9.8914683    
     16800   0.4058697      0.60862695    -6.6338837      9.9527563    
     16900   0.40380682     0.60553353    -6.6328371      9.8233355    
     17000   0.41207973     0.61793929    -6.634665       9.8116083    
     17100   0.40278251     0.60399751    -6.6077576      10.030519    
     17200   0.41017303     0.61508007    -6.6250608      9.8987409    
     17300   0.40842764     0.61246275    -6.6261038      9.9452423    
     17400   0.39716605     0.59557529    -6.6210526      9.9766087    
     17500   0.39680604     0.59503544    -6.6371136      9.8727821    
     17600   0.39650492     0.59458388    -6.6378661      9.9654802    
     17700   0.38741141     0.58094759    -6.6453767      9.7827943    
     17800   0.38889262     0.58316877    -6.6558532      9.6510086    
     17900   0.39196198     0.58777146    -6.6461444      9.8041933    
     18000   0.39462461     0.59176424    -6.6473167      9.7333052    
     18100   0.39375174     0.59045531    -6.6271486      9.8892486    
     18200   0.40121501     0.60164695    -6.6271573      9.8616419    
     18300   0.40959403     0.61421181    -6.6173486      10.03523     
     18400   0.40509028     0.60745817    -6.6205372      9.8734214    
     18500   0.41169454     0.61736167    -6.6245878      9.9428179    
     18600   0.41616913     0.62407159    -6.6431495      9.8474137    
     18700   0.40468261     0.60684683    -6.6337112      9.9463925    
     18800   0.3950514      0.59240423    -6.6264682      10.070893    
     18900   0.39164948     0.58730285    -6.6362636      10.00214     
     19000   0.39267622     0.5888425     -6.6414218      10.012117    
     19100   0.3918475      0.58759979    -6.6598534      9.7363398    
     19200   0.39526604     0.5927261     -6.6435319      9.9462805    
     19300   0.39254399     0.58864421    -6.6339308      9.901389     
     19400   0.39411934     0.59100655    -6.6315286      9.8147384    
     19500   0.40680225     0.61002536    -6.6201484      10.01128     
     19600   0.40615412     0.60905346    -6.6084285      10.083037    
     19700   0.40803878     0.61187963    -6.6128642      9.999955     
     19800   0.40730875     0.6107849     -6.6243073      9.8729153    
     19900   0.40648467     0.60954914    -6.643563       9.713092     
     20000   0.40375288     0.60545264    -6.6369566      9.9236276    
Loop time of 34.4426 on 1 procs for 20000 steps with 3428 atoms

Performance: 250852.065 tau/day, 580.676 timesteps/s, 1.991 Matom-step/s
99.8% CPU use with 1 MPI tasks x 1 OpenMP threads

MPI task timing breakdown:
Section |  min time  |  avg time  |  max time  |%varavg| %total
---------------------------------------------------------------
Pair    | 23.704     | 23.704     | 23.704     |   0.0 | 68.82
Neigh   | 8.12       | 8.12       | 8.12       |   0.0 | 23.58
Comm    | 0.39642    | 0.39642    | 0.39642    |   0.0 |  1.15
Output  | 0.55733    | 0.55733    | 0.55733    |   0.0 |  1.62
Modify  | 1.4716     | 1.4716     | 1.4716     |   0.0 |  4.27
Other   |            | 0.1936     |            |       |  0.56

Nlocal:           3428 ave        3428 max        3428 min
Histogram: 1 0 0 0 0 0 0 0 0 0
Nghost:           5686 ave        5686 max        5686 min
Histogram: 1 0 0 0 0 0 0 0 0 0
Neighs:         172517 ave      172517 max      172517 min
Histogram: 1 0 0 0 0 0 0 0 0 0

Total # of neighbors = 172517
Ave neighs/atom = 50.325846
Neighbor list builds = 2100
Dangerous builds = 178




# Exporting the simulation state to be loaded by the next simulation script

write_data compressed_coordinate.data
System init for write_data ...
Generated 0 of 0 mixed pair_coeff terms from geometric mixing rule
Total wall time: 0:00:35
