LAMMPS (10 Sep 2025 - Development - patch_10Sep2025-660-g792d014343)
OMP_NUM_THREADS environment is not set. Defaulting to 1 thread.
  using 1 OpenMP thread(s) per MPI task
# Defining the essential parameters now all the boundary condition are on

units lj
dimension 3
atom_style atomic
boundary p p p
pair_style lj/cut 2.5




# Loading up system state

read_data compressed_coordinate.data
Reading data file ...
  orthogonal box = (0 0 20) to (15 15 70)
  1 by 1 by 1 MPI processor grid
  reading atoms ...
  3428 atoms
  reading velocities ...
  3428 velocities
  read_data CPU = 0.019 seconds




# Defining the region around the liquid region loaded from the file

region gas_region_1 block 0 15 0 15 20 35
region gas_region_2 block 0 15 0 15 55 70




# Filling up the newly defined empty regions with particles

create_atoms 1 random 100 87910 gas_region_1 overlap 1. maxtry 50
Created 100 atoms
  using lattice units in orthogonal box = (0 0 20) to (15 15 70)
  create_atoms CPU = 0.006 seconds
create_atoms 1 random 100 87910 gas_region_2 overlap 1. maxtry 50
Created 100 atoms
  using lattice units in orthogonal box = (0 0 20) to (15 15 70)
  create_atoms CPU = 0.007 seconds




# Defining the interaction parameters and the particle's properties

mass 1 1
pair_style lj/cut 2.6
pair_coeff 1  1  1  1  2.5




# Assigning the initial velocities

velocity all create 1.0 12345 mom yes rot no  # Assign initial velocities




# Fixing the thermostat and the integrator

fix my_thermo all langevin 0.7 0.7 0.1 54664
fix my_integrator all nve




# Setting up the time steps to achieve the time in lj unit with each simulation steps

timestep 0.005




# Specifying the parameters to be printed on the terminal

thermo 100
thermo_style custom step temp ke pe press




# Exporting the simulation data for analysis

dump 1 all custom 100 simulation_data_coexistence.lammpstrj id type x y z vx vy vz




# Running the code for equillibrium

run 800000
Generated 0 of 0 mixed pair_coeff terms from geometric mixing rule
Neighbor list info ...
  update: every = 1 steps, delay = 0 steps, check = yes
  max neighbors/atom: 2000, page size: 100000
  master list distance cutoff = 2.8
  ghost atom cutoff = 2.8
  binsize = 1.4, bins = 11 11 36
  1 neighbor lists, perpetual/occasional/extra = 1 0 0
  (1) pair lj/cut, perpetual
      attributes: half, newton on
      pair build: half/bin/atomonly/newton
      stencil: half/bin/3d
      bin: standard
Per MPI rank memory allocation (min/avg/max) = 3.626 | 3.626 | 3.626 Mbytes
   Step          Temp          KinEng         PotEng         Press     
         0   1              1.4995865     -5.4922166      3.56586      
       100   0.69691685     1.0450871     -5.6923485      2.5898985    
       200   0.69293916     1.0391222     -5.7171812      2.1867205    
       300   0.70716783     1.0604594     -5.7147044      1.9029055    
       400   0.71745939     1.0758924     -5.7031598      1.6966633    
       500   0.70229193     1.0531475     -5.673442       1.5578925    
       600   0.70710408     1.0603638     -5.6729658      1.3996735    
       700   0.70917839     1.0634744     -5.6568423      1.3062536    
       800   0.69369943     1.0402623     -5.6494985      1.1752898    
       900   0.69382789     1.040455      -5.6031332      1.1386179    
      1000   0.69548235     1.042936      -5.577721       1.0853309    
      1100   0.69689749     1.0450581     -5.5721665      1.012687     
      1200   0.69544001     1.0428725     -5.556906       0.96379455   
      1300   0.70906788     1.0633087     -5.5348945      0.90950302   
      1400   0.71272351     1.0687906     -5.5341509      0.81639212   
      1500   0.69740843     1.0458243     -5.5180807      0.75779828   
      1600   0.70053324     1.0505102     -5.477225       0.77501115   
      1700   0.68466567     1.0267154     -5.4671934      0.71688119   
      1800   0.68167198     1.0222261     -5.450833       0.68185272   
      1900   0.69496737     1.0421637     -5.4658471      0.6266025    
      2000   0.7018999      1.0525597     -5.431987       0.6526557    
      2100   0.69593143     1.0436094     -5.4409167      0.55568021   
      2200   0.70107812     1.0513273     -5.4108075      0.55411795   
      2300   0.69665215     1.0446902     -5.3731465      0.56609195   
      2400   0.71171763     1.0672822     -5.3747743      0.51133142   
      2500   0.69944202     1.0488738     -5.3455641      0.50845926   
      2600   0.70473858     1.0568165     -5.3481271      0.47027597   
      2700   0.6976012      1.0461134     -5.3193556      0.48105426   
      2800   0.69697379     1.0451725     -5.3178434      0.48018243   
      2900   0.70461938     1.0566378     -5.31896        0.43310401   
      3000   0.70238964     1.0532941     -5.3088096      0.42007877   
      3100   0.70583468     1.0584602     -5.3003675      0.41438755   
      3200   0.70179865     1.0524078     -5.2581535      0.45612253   
      3300   0.68829531     1.0321584     -5.2675596      0.40401574   
      3400   0.6865291      1.0295098     -5.2321626      0.44956947   
      3500   0.70471824     1.056786      -5.2447756      0.39160147   
      3600   0.70072568     1.0507988     -5.2577521      0.35259833   
      3700   0.70036437     1.050257      -5.2525269      0.36053088   
      3800   0.68745844     1.0309034     -5.2334703      0.34267631   
      3900   0.6982248      1.0470485     -5.2404202      0.31208921   
      4000   0.71435308     1.0712343     -5.2139852      0.36170932   
      4100   0.71041364     1.0653267     -5.2033615      0.36119675   
      4200   0.71227404     1.0681166     -5.21551        0.32843565   
      4300   0.71045302     1.0653858     -5.2233143      0.29792957   
      4400   0.69555224     1.0430408     -5.1957783      0.3275687    
      4500   0.71610893     1.0738673     -5.1920751      0.31496919   
      4600   0.71294894     1.0691286     -5.194248       0.28688129   
      4700   0.68918855     1.0334979     -5.1629551      0.31848011   
      4800   0.69812552     1.0468996     -5.1587249      0.29254294   
      4900   0.71485544     1.0719876     -5.1625225      0.28907509   
      5000   0.71153976     1.0670155     -5.1580146      0.24501473   
      5100   0.69389452     1.0405549     -5.1074571      0.32141859   
      5200   0.70989614     1.0645507     -5.14844        0.21283046   
      5300   0.68799973     1.0317151     -5.1252577      0.25912822   
      5400   0.68684799     1.029988      -5.134645       0.22875455   
      5500   0.68949297     1.0339544     -5.1110606      0.26705474   
      5600   0.69876978     1.0478658     -5.113891       0.25249418   
      5700   0.70387051     1.0555148     -5.1164103      0.23156156   
      5800   0.67305429     1.0093032     -5.1011532      0.22626953   
      5900   0.69882686     1.0479514     -5.103884       0.21472733   
      6000   0.70318281     1.0544835     -5.0778248      0.25939048   
      6100   0.70134483     1.0517273     -5.0802743      0.2220609    
      6200   0.69891347     1.0480812     -5.0815506      0.18926053   
      6300   0.69866405     1.0477072     -5.0822155      0.15933482   
      6400   0.6879322      1.0316139     -5.0904568      0.14401308   
      6500   0.69429799     1.0411599     -5.0659755      0.18870709   
      6600   0.69654737     1.0445331     -5.0415756      0.22078638   
      6700   0.69397129     1.04067       -5.070344       0.15090186   
      6800   0.69994698     1.0496311     -5.0599661      0.16522243   
      6900   0.71361168     1.0701225     -5.0442737      0.196952     
      7000   0.69612607     1.0439013     -5.0595838      0.14519825   
      7100   0.69729015     1.0456469     -5.0559821      0.14188722   
      7200   0.70901456     1.0632287     -5.0373202      0.19779261   
      7300   0.7134637      1.0699006     -5.0308098      0.18291444   
      7400   0.70559975     1.0581079     -5.0336709      0.16607894   
      7500   0.69001524     1.0347376     -5.0340265      0.12827323   
      7600   0.69409017     1.0408483     -5.0310397      0.14897878   
      7700   0.68862986     1.0326601     -5.0341153      0.14498973   
      7800   0.70707081     1.0603139     -5.0153463      0.16675281   
      7900   0.69717379     1.0454724     -5.0148782      0.15349497   
      8000   0.67057642     1.0055874     -5.0162603      0.10952227   
      8100   0.72310505     1.0843586     -5.0058167      0.15309118   
      8200   0.70485066     1.0569846     -4.9943663      0.15556409   
      8300   0.71151872     1.0669839     -4.9844173      0.14258083   
      8400   0.68889666     1.0330602     -4.9720608      0.17064899   
      8500   0.71196496     1.0676531     -4.975211       0.1424745    
      8600   0.70133281     1.0517092     -4.9604602      0.16357174   
      8700   0.69543513     1.0428652     -4.987048       0.11135063   
      8800   0.68728626     1.0306452     -4.9671203      0.13149265   
      8900   0.69148283     1.0369383     -4.9680882      0.15404986   
      9000   0.69782654     1.0464513     -4.9605594      0.16658178   
      9100   0.71136298     1.0667504     -4.9829155      0.11376142   
      9200   0.70232697     1.0532001     -4.9892258      0.068123567  
      9300   0.69457248     1.0415715     -4.9901378      0.08146945   
      9400   0.70268009     1.0537296     -4.9793807      0.083940359  
      9500   0.6985555      1.0475444     -4.9747279      0.087486719  
      9600   0.69710569     1.0453703     -4.9705447      0.062729753  
      9700   0.69319252     1.0395022     -4.968184       0.099012824  
      9800   0.68564011     1.0281767     -4.9411019      0.12058428   
      9900   0.70193003     1.0526048     -4.9623312      0.084132951  
     10000   0.71054405     1.0655223     -4.9586929      0.096217521  
     10100   0.70649113     1.0594446     -4.9468556      0.12875215   
     10200   0.70907056     1.0633127     -4.9604822      0.090636473  
     10300   0.71221277     1.0680247     -4.9561031      0.11065028   
     10400   0.70223071     1.0530557     -4.939359       0.099522646  
     10500   0.70664375     1.0596735     -4.9420077      0.11882262   
     10600   0.69099415     1.0362055     -4.9385008      0.094162846  
     10700   0.70691657     1.0600826     -4.9559606      0.076611471  
     10800   0.70661816     1.0596351     -4.9632216      0.085426655  
     10900   0.69773473     1.0463136     -4.9452726      0.088489741  
     11000   0.69735536     1.0457447     -4.9533364      0.077816406  
     11100   0.70322803     1.0545513     -4.9566819      0.06121873   
     11200   0.71012315     1.0648911     -4.9756627      0.050059394  
     11300   0.70401647     1.0557336     -4.9671738      0.050327802  
     11400   0.685398       1.0278136     -4.9614305      0.043241136  
     11500   0.70642508     1.0593455     -4.9367693      0.11696232   
     11600   0.70442695     1.0563492     -4.9531414      0.069107703  
     11700   0.69085072     1.0359905     -4.9574806      0.077688149  
     11800   0.70283566     1.0539629     -4.9592176      0.077155193  
     11900   0.71127944     1.0666251     -4.9749709      0.054104938  
     12000   0.69722694     1.0455521     -4.962452       0.078847557  
     12100   0.70067729     1.0507262     -4.9547684      0.070925156  
     12200   0.69312584     1.0394022     -4.9324188      0.089946285  
     12300   0.69554125     1.0430243     -4.9288769      0.10637676   
     12400   0.71733703     1.075709      -4.9401058      0.10763889   
     12500   0.71296827     1.0691576     -4.9404323      0.070535752  
     12600   0.71055714     1.0655419     -4.9204879      0.097829189  
     12700   0.71494845     1.0721271     -4.9125695      0.12537921   
     12800   0.7129949      1.0691976     -4.9378288      0.076345981  
     12900   0.6794023      1.0188226     -4.9451298      0.029635007  
     13000   0.69860863     1.0476241     -4.9415576      0.052519149  
     13100   0.69036682     1.0352648     -4.9262057      0.069659017  
     13200   0.70043313     1.0503601     -4.9363968      0.0402022    
     13300   0.7092491      1.0635804     -4.9319381      0.048623963  
     13400   0.6817967      1.0224132     -4.9187059      0.057450222  
     13500   0.69860654     1.047621      -4.9262497      0.074993506  
     13600   0.70642663     1.0593479     -4.9219085      0.069258689  
     13700   0.69963341     1.0491608     -4.9315935      0.040306015  
     13800   0.70678564     1.0598862     -4.9154359      0.060455217  
     13900   0.71284165     1.0689678     -4.9179253      0.049157213  
     14000   0.70238703     1.0532901     -4.9211116      0.028154843  
     14100   0.6967382      1.0448192     -4.8808464      0.11106572   
     14200   0.70241993     1.0533395     -4.8916099      0.087767593  
     14300   0.70595883     1.0586464     -4.8863477      0.090000284  
     14400   0.68140474     1.0218254     -4.9064139      0.01313682   
     14500   0.69451207     1.041481      -4.8992808      0.0035014735 
     14600   0.70536575     1.057757      -4.9034545      0.017604907  
     14700   0.69259303     1.0386032     -4.8793932      0.077120529  
     14800   0.69190019     1.0375642     -4.8802796      0.061955347  
     14900   0.70340316     1.0548139     -4.8840866      0.046268247  
     15000   0.68157518     1.022081      -4.8783565      0.044024915  
     15100   0.68748081     1.030937      -4.8824905      0.037681778  
     15200   0.69868388     1.047737      -4.8936276      0.032932464  
     15300   0.70467153     1.0567159     -4.890065       0.059364442  
     15400   0.69900968     1.0482255     -4.8909047      0.05582006   
     15500   0.70443106     1.0563553     -4.8858206      0.055483878  
     15600   0.69931119     1.0486776     -4.9125905      0.016064985  
     15700   0.68971275     1.034284      -4.895371       0.022164948  
     15800   0.70015818     1.0499478     -4.9002773      0.039603639  
     15900   0.71758986     1.0760881     -4.900476       0.036399729  
     16000   0.69825425     1.0470927     -4.9133715      0.012817385  
     16100   0.70055136     1.0505374     -4.9076321      0.017627423  
     16200   0.68980908     1.0344284     -4.8987615      0.04513035   
     16300   0.71416479     1.0709519     -4.9041907      0.041459555  
     16400   0.68675993     1.0298559     -4.9073138      0.030038777  
     16500   0.71141854     1.0668337     -4.9011462      0.042921651  
     16600   0.69995486     1.0496429     -4.9108037      0.021483743  
     16700   0.71741226     1.0758218     -4.9112851      0.022321357  
     16800   0.67730023     1.0156703     -4.9017127      0.03643024   
     16900   0.71636586     1.0742526     -4.903553       0.055176851  
     17000   0.68529918     1.0276654     -4.902361       0.054908255  
     17100   0.71285503     1.0689878     -4.9135818      0.072533296  
     17200   0.70585321     1.058488      -4.9410265      0.035495237  
     17300   0.70747148     1.0609147     -4.9185054      0.0746217    
     17400   0.70156012     1.0520501     -4.921537       0.040612355  
     17500   0.67978629     1.0193984     -4.9115467      0.047355873  
     17600   0.69869912     1.0477598     -4.9261002      0.007348661  
     17700   0.69803108     1.046758      -4.9305983      0.0032383914 
     17800   0.73186223     1.0974908     -4.9317094      0.035691853  
     17900   0.70347995     1.0549291     -4.9160169      0.057901382  
     18000   0.69361082     1.0401295     -4.9098389      0.026620315  
     18100   0.70979193     1.0643944     -4.9115081      0.036879333  
     18200   0.71206564     1.0678041     -4.9103692      0.033711607  
     18300   0.70255986     1.0535493     -4.8955466      0.065200871  
     18400   0.70478803     1.0568907     -4.9131469      0.035841544  
     18500   0.71589138     1.0735411     -4.8986996      0.065037759  
     18600   0.69726923     1.0456156     -4.9059885      0.065164342  
     18700   0.69349207     1.0399514     -4.9199964      0.029429139  
     18800   0.68840739     1.0323265     -4.9019973      0.045080363  
     18900   0.71103518     1.0662588     -4.9257469      0.031609297  
     19000   0.70816427     1.0619536     -4.9142993      0.040422468  
     19100   0.71590379     1.0735597     -4.9180467      0.045534054  
     19200   0.69219233     1.0380023     -4.8861003      0.044752789  
     19300   0.69722397     1.0455477     -4.8751467      0.071638809  
     19400   0.70064414     1.0506765     -4.8885252      0.051121365  
     19500   0.68384034     1.0254778     -4.877854       0.040637329  
     19600   0.71096353     1.0661513     -4.8856468      0.032694504  
     19700   0.69733544     1.0457148     -4.8860824      0.023258024  
     19800   0.71749746     1.0759495     -4.8877407      0.038955214  
     19900   0.70640166     1.0593104     -4.8842453      0.03624905   
     20000   0.71120704     1.0665165     -4.8785434      0.020130573  
     20100   0.70808837     1.0618398     -4.8954794      0.02099843   
     20200   0.70426981     1.0561135     -4.8801071      0.02641913   
     20300   0.69918956     1.0484953     -4.8741619      0.045279054  
     20400   0.69418831     1.0409954     -4.8625012      0.06462909   
     20500   0.71975561     1.0793358     -4.8640163      0.098989927  
     20600   0.70470038     1.0567592     -4.8762884      0.035598977  
     20700   0.71327284     1.0696144     -4.8695986      0.058251797  
     20800   0.70849264     1.062446      -4.8962295      0.012604971  
     20900   0.70844955     1.0623814     -4.8650127      0.047532352  
     21000   0.70064121     1.0506721     -4.8963334     -0.012044406  
     21100   0.69896351     1.0481563     -4.8921809     -0.007723949  
     21200   0.70293145     1.0541066     -4.8738199      0.025248733  
     21300   0.71636705     1.0742544     -4.8756888      0.011276864  
     21400   0.71414129     1.0709167     -4.8838206      0.019267217  
     21500   0.69473903     1.0418213     -4.8824234      0.043556025  
     21600   0.69992232     1.0495941     -4.8869075      0.0052038506 
     21700   0.69126116     1.0366059     -4.8595338      0.053026438  
     21800   0.71099815     1.0662033     -4.8711802      0.021621183  
     21900   0.70170103     1.0522614     -4.881423       0.004314361  
     22000   0.70513277     1.0574076     -4.8642662      0.041621217  
     22100   0.69954902     1.0490343     -4.8709665      0.015395729  
     22200   0.6901285      1.0349074     -4.892576      -0.0051921032 
     22300   0.69229684     1.038159      -4.8834344      0.0026098245 
     22400   0.70221555     1.053033      -4.8892009      0.00017462508
     22500   0.70468899     1.0567421     -4.8566607      0.055156974  
     22600   0.69064831     1.0356869     -4.8968401     -0.023333307  
     22700   0.69759463     1.0461035     -4.8778166     -0.010582735  
     22800   0.69013168     1.0349122     -4.8947863     -0.01979301   
     22900   0.71129724     1.0666518     -4.8723826      0.042277032  
     23000   0.69743889     1.04587       -4.8805754      0.021020682  
     23100   0.70610853     1.0588708     -4.8797569      0.01425388   
     23200   0.69967647     1.0492254     -4.8690658      0.01534229   
     23300   0.70229035     1.0531452     -4.8825877     -0.00087028525
     23400   0.70917128     1.0634637     -4.8912674     -0.014304298  
     23500   0.71123381     1.0665567     -4.8836622      0.0060660068 
     23600   0.71597782     1.0736707     -4.881949       0.024629738  
     23700   0.68848163     1.0324378     -4.8609508      0.031988334  
     23800   0.6807614      1.0208606     -4.8836728     -0.043969085  
     23900   0.71087861     1.066024      -4.8775506      0.0089252987 
     24000   0.67737404     1.015781      -4.8747814      0.021738822  
     24100   0.68712701     1.0304064     -4.8646732      0.047467724  
     24200   0.68291772     1.0240942     -4.8735206      0.036504472  
     24300   0.70379534     1.055402      -4.8561285      0.053866149  
     24400   0.70492717     1.0570993     -4.8877162     -0.0043080409 
     24500   0.69099201     1.0362023     -4.8911286      0.0070717898 
     24600   0.67120253     1.0065263     -4.8783884      0.023983229  
     24700   0.69066696     1.0357149     -4.8889229     -0.0080283328 
     24800   0.69699441     1.0452034     -4.8694144      0.021736651  
     24900   0.70334046     1.0547199     -4.8754415      0.01058585   
     25000   0.69776797     1.0463635     -4.8691297      0.024199389  
     25100   0.685299       1.0276652     -4.8867157     -0.019918663  
     25200   0.69935226     1.0487392     -4.8874813      0.00013168409
     25300   0.70669758     1.0597542     -4.8745421      0.060209062  
     25400   0.71733631     1.0757079     -4.8758103      0.049712371  
     25500   0.71154576     1.0670244     -4.8819335      0.037801893  
     25600   0.70061857     1.0506382     -4.878679       0.049838031  
     25700   0.68771902     1.0312942     -4.8859531      0.017487753  
     25800   0.69899459     1.0482029     -4.8790564      0.01988285   
     25900   0.69102333     1.0362493     -4.8782728      0.013121454  
     26000   0.71295107     1.0691318     -4.8756821      0.036296587  
     26100   0.69726924     1.0456156     -4.8758561      0.0060165918 
     26200   0.68762852     1.0311585     -4.8883651     -0.0049487997 
     26300   0.7048297      1.0569531     -4.8624071      0.037705662  
     26400   0.68267755     1.0237341     -4.872048      -0.0070971168 
     26500   0.70345092     1.0548855     -4.8649226      0.0071748517 
     26600   0.69518415     1.0424888     -4.8609937      0.0039547892 
     26700   0.69655808     1.0445491     -4.8647203     -0.00056225814
     26800   0.71138077     1.066777      -4.8783615     -0.01947088   
     26900   0.68946279     1.0339091     -4.8653723     -0.0076024367 
     27000   0.70049856     1.0504582     -4.8471965      0.030352731  
     27100   0.7059476      1.0586295     -4.878711       0.019572065  
     27200   0.7009655      1.0511584     -4.8740011      0.0018900711 
     27300   0.71174042     1.0673164     -4.8730232     -0.010522176  
     27400   0.6959399      1.0436221     -4.8725053      0.011885947  
     27500   0.69623574     1.0440658     -4.8979169     -0.017016899  
     27600   0.71063763     1.0656626     -4.8764593      0.01507873   
     27700   0.71278946     1.0688895     -4.8965539     -0.0013653712 
     27800   0.69585726     1.0434982     -4.867599       0.027255592  
     27900   0.69137011     1.0367693     -4.8648108      0.021656249  
     28000   0.70476555     1.0568569     -4.8715695      0.00019937871
     28100   0.69557736     1.0430785     -4.8654444      0.023973947  
     28200   0.69422334     1.041048      -4.8616464      0.02573733   
     28300   0.68710701     1.0303764     -4.8690399     -0.020670258  
     28400   0.70898529     1.0631848     -4.8671508     -0.0060074235 
     28500   0.68912535     1.0334031     -4.8720726     -0.018844584  
     28600   0.70002325     1.0497455     -4.8822704     -0.011879138  
     28700   0.70301953     1.0542386     -4.8798951     -0.0080932925 
     28800   0.69802422     1.0467477     -4.859874       0.0091968569 
     28900   0.71578724     1.0733849     -4.8610476      0.029273708  
     29000   0.6795714      1.0190761     -4.8643742      0.015639067  
     29100   0.6971853      1.0454897     -4.8688138      0.028063039  
     29200   0.70111138     1.0513772     -4.8559917      0.052803406  
     29300   0.70325059     1.0545851     -4.8702183     -0.0079046309 
     29400   0.70329738     1.0546553     -4.8790522     -0.018490491  
     29500   0.69133065     1.0367101     -4.8598893     -0.0022690699 
     29600   0.69667201     1.04472       -4.8614593      0.0070688497 
     29700   0.71085158     1.0659835     -4.8460189      0.032867684  
     29800   0.6951287      1.0424056     -4.8598531      0.006340608  
     29900   0.70061068     1.0506263     -4.8314052      0.024130874  
     30000   0.6931007      1.0393645     -4.8546907     -0.040629683  
     30100   0.70637976     1.0592776     -4.8575857     -0.023390086  
     30200   0.70844786     1.0623789     -4.841371       0.0077937067 
     30300   0.68545691     1.027902      -4.8471304     -0.014757238  
     30400   0.71785856     1.076491      -4.8476177     -0.0011958335 
     30500   0.69214079     1.037925      -4.8601938     -0.026902531  
     30600   0.68221441     1.0230395     -4.8597555     -0.031336171  
     30700   0.70241514     1.0533323     -4.8705678     -0.01885668   
     30800   0.70048883     1.0504436     -4.8514943      0.011839059  
     30900   0.68918174     1.0334877     -4.8827272     -0.043269747  
     31000   0.69254372     1.0385293     -4.8632622     -0.0070734417 
     31100   0.69434666     1.0412329     -4.877166      -0.022323765  
     31200   0.69447358     1.0414232     -4.8823663     -0.0040229298 
     31300   0.70944382     1.0638724     -4.8595158     -0.0087201638 
     31400   0.70096235     1.0511537     -4.8727105      0.0015736985 
     31500   0.70910104     1.0633584     -4.8667745      0.012771707  
     31600   0.70062588     1.0506491     -4.8569551      0.047354321  
     31700   0.69132608     1.0367033     -4.8574038      0.046437899  
     31800   0.70874193     1.0628199     -4.8714403      0.013412015  
     31900   0.71304296     1.0692696     -4.8649184      0.0016729925 
     32000   0.69976128     1.0493526     -4.8556         0.020679941  
     32100   0.69711289     1.0453811     -4.8590243      0.019306786  
     32200   0.70028606     1.0501396     -4.8711612     -0.013685589  
     32300   0.68713737     1.030422      -4.8622124     -0.0045454742 
     32400   0.70412862     1.0559018     -4.8626423     -0.017854985  
     32500   0.71894991     1.0781276     -4.8516244      0.041616493  
     32600   0.67922505     1.0185568     -4.8723737     -0.013483073  
     32700   0.70105477     1.0512923     -4.8676001      0.0041079434 
     32800   0.70838985     1.0622919     -4.8647816      0.005923568  
     32900   0.6879107      1.0315816     -4.8762381     -0.0093558392 
     33000   0.70498037     1.0571791     -4.8755854     -0.0091437108 
     33100   0.70080574     1.0509189     -4.8749537     -0.0058938211 
     33200   0.69811743     1.0468875     -4.8762246      0.0094458788 
     33300   0.69762809     1.0461537     -4.8724412      0.030520794  
     33400   0.70899789     1.0632037     -4.8675527      0.016490745  
     33500   0.70252364     1.053495      -4.8636486      0.026786008  
     33600   0.71071507     1.0657788     -4.8512847      0.057862211  
     33700   0.69579175     1.0433999     -4.8838926     -0.0037691508 
     33800   0.70237085     1.0532659     -4.8707912      0.022221984  
     33900   0.70701859     1.0602356     -4.8614171      0.037095802  
     34000   0.69785268     1.0464905     -4.8663866      0.0093143542 
     34100   0.69937686     1.0487761     -4.8677536      0.017693924  
     34200   0.70811094     1.0618736     -4.8443419      0.039879626  
     34300   0.71915682     1.0784379     -4.8620956     -0.032801449  
     34400   0.71349734     1.069951      -4.8459882      0.00037708345
     34500   0.71692613     1.0750928     -4.8487276     -0.011140676  
     34600   0.68189764     1.0225645     -4.8557534     -0.024140195  
     34700   0.70301363     1.0542298     -4.8418339      0.016230675  
     34800   0.70623257     1.0590569     -4.8483916     -0.0066531328 
     34900   0.70492236     1.0570921     -4.8476631      0.019880446  
     35000   0.69196841     1.0376665     -4.8421641      0.018035739  
     35100   0.71273528     1.0688082     -4.8422537      0.017668469  
     35200   0.68946071     1.033906      -4.8484018     -0.011563903  
     35300   0.70726406     1.0606037     -4.868197      -0.0084916268 
     35400   0.69908605     1.04834       -4.8523964      0.023912161  
     35500   0.69483844     1.0419704     -4.868013      -0.017570669  
     35600   0.71295162     1.0691327     -4.8524052      0.038732375  
     35700   0.68608074     1.0288374     -4.8522407      0.0027118746 
     35800   0.69958047     1.0490815     -4.8571226     -0.0010197314 
     35900   0.70364805     1.0551811     -4.8615685     -0.01559565   
     36000   0.69685204     1.0449899     -4.8708939     -0.010554678  
     36100   0.69658463     1.0445889     -4.8538481     -0.019978825  
     36200   0.70351016     1.0549744     -4.8743079     -0.040219462  
     36300   0.70736676     1.0607577     -4.855881      -0.0049161848 
     36400   0.70038774     1.050292      -4.8651635     -0.0058706213 
     36500   0.70814544     1.0619254     -4.8704574     -0.016748044  
     36600   0.69202691     1.0377542     -4.8637837     -0.0025932365 
     36700   0.70325612     1.0545934     -4.8764312     -0.0075990807 
     36800   0.70051081     1.0504766     -4.8900413     -0.016680378  
     36900   0.69984745     1.0494818     -4.886608       0.010508784  
     37000   0.69991582     1.0495843     -4.8678091      0.022358831  
     37100   0.67342319     1.0098564     -4.8855524     -0.023850666  
     37200   0.70460092     1.0566101     -4.8558418      0.041452423  
     37300   0.71027145     1.0651135     -4.8795954      0.0085743137 
     37400   0.71692621     1.0750929     -4.8791259      0.020862527  
     37500   0.71853228     1.0775013     -4.8686734      0.022342167  
     37600   0.70231116     1.0531764     -4.8640117      0.023415198  
     37700   0.72173194     1.0822995     -4.8628633      0.039480142  
     37800   0.69259779     1.0386103     -4.8803745      0.00732183   
     37900   0.70712924     1.0604015     -4.899593      -0.013741814  
     38000   0.71529808     1.0726514     -4.8865551      0.035583769  
     38100   0.71325657     1.06959       -4.9115965     -0.021674886  
     38200   0.68429436     1.0261586     -4.8931018      0.011458756  
     38300   0.6919447      1.037631      -4.8878787      0.012756474  
     38400   0.71056992     1.0655611     -4.8968369      0.0063774417 
     38500   0.69114425     1.0364306     -4.8662566      0.062277525  
     38600   0.70268514     1.0537372     -4.9086971     -0.0074125317 
     38700   0.70650664     1.0594679     -4.8950244      0.013909789  
     38800   0.70114043     1.0514208     -4.884842       0.0039244682 
     38900   0.69474536     1.0418308     -4.864708       0.045232139  
     39000   0.71009347     1.0648466     -4.8717257      0.027273876  
     39100   0.70240567     1.0533181     -4.9008402     -0.020451144  
     39200   0.69037572     1.0352782     -4.8987648     -0.019213105  
     39300   0.69669714     1.0447577     -4.8668182      0.028819447  
     39400   0.71703125     1.0752504     -4.8762957      0.027333891  
     39500   0.69362296     1.0401477     -4.8886593      0.0038590229 
     39600   0.68940672     1.033825      -4.8777982      0.0086050169 
     39700   0.71021223     1.0650247     -4.8771417      0.018201079  
     39800   0.69655804     1.0445491     -4.8837927      0.0061427102 
     39900   0.68726967     1.0306204     -4.8716091      0.028796086  
     40000   0.69484299     1.0419772     -4.8794534      0.027539821  
     40100   0.68695948     1.0301552     -4.8933451     -0.011090328  
     40200   0.70371502     1.0552816     -4.8582963      0.037136534  
     40300   0.70138164     1.0517825     -4.8763688      0.00038767029
     40400   0.70435144     1.056236      -4.8899507     -0.00098407125
     40500   0.70697952     1.060177      -4.8707089      0.01842362   
     40600   0.70009089     1.0498469     -4.8690278     -0.0025459318 
     40700   0.71304528     1.0692731     -4.8753785      0.013845578  
     40800   0.69629336     1.0441522     -4.8574276      0.013711775  
     40900   0.69996343     1.0496557     -4.8706559     -0.020192521  
     41000   0.68543366     1.0278671     -4.8669383     -0.020319838  
     41100   0.69577763     1.0433788     -4.8697115     -0.0094865663 
     41200   0.7056387      1.0581663     -4.8820018     -0.032808996  
     41300   0.7013694      1.0517641     -4.8570559      0.018972431  
     41400   0.69899179     1.0481987     -4.8760529     -0.01972217   
     41500   0.69555427     1.0430438     -4.8840368     -0.016243183  
     41600   0.70551717     1.0579841     -4.8906042     -0.038957113  
     41700   0.70755953     1.0610468     -4.8617078      0.00083180966
     41800   0.69014226     1.0349281     -4.8532622      0.029271909  
     41900   0.69423548     1.0410662     -4.8762727     -0.0048371884 
     42000   0.72254234     1.0835148     -4.8737566      0.013670189  
     42100   0.69287715     1.0390293     -4.8870655     -0.03044778   
     42200   0.69656121     1.0445538     -4.8822662      0.017661758  
     42300   0.72155554     1.082035      -4.88593        0.027486568  
     42400   0.71007473     1.0648185     -4.8892375     -0.011796928  
     42500   0.70216729     1.0529606     -4.8739337     -0.0079386934 
     42600   0.69312383     1.0393992     -4.8774718     -0.012494059  
     42700   0.68668713     1.0297468     -4.8695194      0.0034737057 
     42800   0.71094455     1.0661229     -4.8586492      0.033734508  
     42900   0.68152484     1.0220055     -4.8828452     -0.036555362  
     43000   0.68669725     1.029762      -4.8900492     -0.03384109   
     43100   0.69938058     1.0487817     -4.8675585     -0.0048465264 
     43200   0.69558197     1.0430854     -4.8662262      0.012340859  
     43300   0.70428722     1.0561396     -4.8601477      0.00555197   
     43400   0.69113914     1.036423      -4.8904932     -0.025315479  
     43500   0.69259638     1.0386082     -4.8801209      0.0043022815 
     43600   0.70303777     1.054266      -4.9035855     -0.047910142  
     43700   0.70718589     1.0604865     -4.8874898     -0.030816478  
     43800   0.69780885     1.0464248     -4.8740808      0.00279144   
     43900   0.68618988     1.0290011     -4.8839299     -0.0088365945 
     44000   0.70842453     1.0623439     -4.8732532      0.015357322  
     44100   0.71372518     1.0702927     -4.8901149     -0.00069273214
     44200   0.7060143      1.0587295     -4.8772091      0.024019233  
     44300   0.69219394     1.0380047     -4.8659441      0.045948973  
     44400   0.69009513     1.0348574     -4.8954738     -0.014846053  
     44500   0.70117709     1.0514757     -4.8714288      0.014986144  
     44600   0.6779427      1.0166338     -4.8692849     -0.00069990838
     44700   0.69970685     1.049271      -4.8651606      0.014098083  
     44800   0.6957227      1.0432964     -4.8840355     -0.035040562  
     44900   0.69705999     1.0453018     -4.8670036      0.013908868  
     45000   0.71362738     1.070146      -4.8780447     -0.032236925  
     45100   0.69329378     1.039654      -4.8683716     -0.010367038  
     45200   0.69242469     1.0383508     -4.8857444     -0.045249097  
     45300   0.70958151     1.0640789     -4.8742926      0.0034610237 
     45400   0.69717587     1.0454756     -4.8678476      0.022572168  
     45500   0.70004928     1.0497845     -4.8800673     -0.025361672  
     45600   0.69626715     1.0441128     -4.8816551     -0.039770382  
     45700   0.68135367     1.0217488     -4.8694672     -0.010052231  
     45800   0.70989573     1.0645501     -4.8795422     -0.0037203674 
     45900   0.69540172     1.0428151     -4.8743904      0.023343261  
     46000   0.71692851     1.0750963     -4.878967      -0.01208922   
     46100   0.69277509     1.0388762     -4.8479459      0.041122983  
     46200   0.71839374     1.0772936     -4.8542456      0.009935331  
     46300   0.6956563      1.0431968     -4.8690071     -0.026078166  
     46400   0.69659482     1.0446042     -4.8723483      0.0011560108 
     46500   0.70051089     1.0504767     -4.8618635      0.04209485   
     46600   0.70269879     1.0537577     -4.8575708      0.033378855  
     46700   0.69694174     1.0451245     -4.8810587     -0.00085182835
     46800   0.68565567     1.0282        -4.867137       0.018209859  
     46900   0.6991449      1.0484283     -4.8650417      0.024376068  
     47000   0.69480064     1.0419137     -4.8680246     -0.0036715965 
     47100   0.71014466     1.0649234     -4.8505094      0.031336607  
     47200   0.69470131     1.0417647     -4.8793073     -0.032084755  
     47300   0.68962633     1.0341544     -4.8640725      0.032049761  
     47400   0.69726413     1.0456079     -4.8659721     -0.0043998413 
     47500   0.69218915     1.0379975     -4.8682502     -0.020587436  
     47600   0.69762061     1.0461425     -4.8634517     -0.0023207676 
     47700   0.68322292     1.0245519     -4.8631056     -0.0030225038 
     47800   0.69883258     1.0479599     -4.8620887      0.0051624008 
     47900   0.70869427     1.0627484     -4.8661269      0.0051412258 
     48000   0.70962335     1.0641416     -4.8675838     -0.012088892  
     48100   0.68371398     1.0252883     -4.8675126     -0.0096347814 
     48200   0.70507291     1.0573179     -4.8440364      0.044851906  
     48300   0.70992529     1.0645944     -4.8770657      0.011099274  
     48400   0.6980271      1.0467521     -4.8870922     -0.019711969  
     48500   0.71031081     1.0651725     -4.8777106     -0.014797126  
     48600   0.6961319      1.04391       -4.8862102     -0.013205586  
     48700   0.69921988     1.0485407     -4.8753057      0.013411202  
     48800   0.70288575     1.054038      -4.877173       0.021554955  
     48900   0.68538805     1.0277987     -4.8922419      0.0090451563 
     49000   0.68965169     1.0341924     -4.8858344      0.0059853549 
     49100   0.70385628     1.0554934     -4.8803717     -2.7997969e-05
     49200   0.6980056      1.0467198     -4.8553938      0.045240994  
     49300   0.69751976     1.0459913     -4.8638931      0.036955071  
     49400   0.71763753     1.0761596     -4.8738668      0.014724068  
     49500   0.70423262     1.0560578     -4.8900764     -0.017192474  
     49600   0.69745369     1.0458922     -4.8707448      0.016210239  
     49700   0.68193003     1.0226131     -4.8710885     -0.039175269  
     49800   0.6912177      1.0365408     -4.8693897     -0.011339574  
     49900   0.70016936     1.0499646     -4.856354       0.0044634317 
     50000   0.69233638     1.0382183     -4.8756208     -0.0070572779 
     50100   0.6864743      1.0294276     -4.8531218      0.01275546   
     50200   0.70525092     1.0575848     -4.852092      -0.00050044085
     50300   0.69335927     1.0397522     -4.8435014      0.016148276  
     50400   0.69080821     1.0359267     -4.8461927      0.034828801  
     50500   0.70873011     1.0628021     -4.8554426      0.032444185  
     50600   0.69122405     1.0365503     -4.8586089      0.0036275    
     50700   0.67996195     1.0196618     -4.8429609      0.025847752  
     50800   0.70581352     1.0584285     -4.849022      -0.0067880525 
     50900   0.70420392     1.0560147     -4.8613996     -0.012366275  
     51000   0.69943203     1.0488589     -4.8602537     -0.016577194  
     51100   0.70174687     1.0523302     -4.8443586      0.0067932346 
     51200   0.70594221     1.0586214     -4.869748      -0.042504992  
     51300   0.69498099     1.0421841     -4.8536341     -0.023210943  
     51400   0.69287062     1.0390195     -4.8438612     -0.0012614258 
     51500   0.68816034     1.031956      -4.865261      -0.032881793  
     51600   0.68822558     1.0320538     -4.8574947     -0.028397863  
     51700   0.70083323     1.0509601     -4.8430578     -0.0072253402 
     51800   0.70031463     1.0501824     -4.8661596     -0.023557906  
     51900   0.69026632     1.0351141     -4.8513397      0.00042582688
     52000   0.69575997     1.0433523     -4.8829448     -0.063255824  
     52100   0.69740356     1.045817      -4.878452      -0.030535011  
     52200   0.70163725     1.0521658     -4.867862      -0.022354836  
     52300   0.70362911     1.0551527     -4.8833398     -0.026676396  
     52400   0.70201135     1.0527268     -4.8908214     -0.049585854  
     52500   0.69837763     1.0472777     -4.8872059     -0.030339537  
     52600   0.69057062     1.0355704     -4.8915644     -0.033491777  
     52700   0.70645948     1.0593971     -4.8990051     -0.015997307  
     52800   0.69217727     1.0379797     -4.8886005     -0.031569129  
     52900   0.68483112     1.0269635     -4.9089572     -0.062238103  
     53000   0.71224387     1.0680713     -4.857897       0.03486021   
     53100   0.69938409     1.048787      -4.8616151      0.025569459  
     53200   0.70591987     1.0585879     -4.8785325     -0.010723203  
     53300   0.71888746     1.078034      -4.8631474      0.023224896  
     53400   0.69248147     1.0384359     -4.8794831     -0.029646806  
     53500   0.71176691     1.0673561     -4.8661919     -0.0096279826 
     53600   0.68356495     1.0250648     -4.8809227     -0.019256389  
     53700   0.69417178     1.0409707     -4.8689754      0.0084745747 
     53800   0.70551331     1.0579783     -4.868928      -0.0029436538 
     53900   0.70240185     1.0533124     -4.8699729     -0.019149243  
     54000   0.71083492     1.0659585     -4.8593047     -0.010033985  
     54100   0.69379512     1.0404058     -4.8736554     -0.03377508   
     54200   0.71199235     1.0676941     -4.8519925      0.020787113  
     54300   0.69662872     1.0446551     -4.8589052     -0.00329359   
     54400   0.68798674     1.0316957     -4.8540256      0.0061826537 
     54500   0.71779133     1.0763902     -4.8625202     -0.00094660838
     54600   0.71454201     1.0715176     -4.8548539      0.0066259657 
     54700   0.69401123     1.0407299     -4.8596031     -0.017682926  
     54800   0.68899222     1.0332035     -4.8593146     -0.0096104258 
     54900   0.71727607     1.0756176     -4.8772412     -0.012640324  
     55000   0.69495521     1.0421455     -4.8495215      0.013130962  
     55100   0.71160032     1.0671063     -4.8678113     -0.0034431245 
     55200   0.70454336     1.0565237     -4.8760665     -0.017348903  
     55300   0.71425477     1.0710869     -4.8537197      0.0059598897 
     55400   0.70294483     1.0541266     -4.8472723      0.0045988377 
     55500   0.69205751     1.0378001     -4.8546521     -0.011313349  
     55600   0.70769266     1.0612464     -4.8563462     -0.0015516655 
     55700   0.71274357     1.0688207     -4.8447447      0.0073015351 
     55800   0.69680823     1.0449242     -4.8766632     -0.058841945  
     55900   0.71117109     1.0664626     -4.8859852     -0.054289149  
     56000   0.70371847     1.0552867     -4.869931      -0.054048091  
     56100   0.70638254     1.0592818     -4.8941055     -0.05757439   
     56200   0.71853962     1.0775123     -4.8705926     -0.014403552  
     56300   0.70040831     1.0503229     -4.8552549     -0.0026312815 
     56400   0.68853563     1.0325188     -4.8762719     -0.028317691  
     56500   0.70663337     1.0596579     -4.8686467      0.00032508682
     56600   0.70917831     1.0634743     -4.8792226      0.022697347  
     56700   0.70315028     1.0544347     -4.8701001     -0.00097657272
     56800   0.72498482     1.0871775     -4.8614034      0.023210965  
     56900   0.71409566     1.0708482     -4.8487747      0.040583073  
     57000   0.69641919     1.0443408     -4.8688757      0.016452609  
     57100   0.70437651     1.0562735     -4.8565986      0.027360052  
     57200   0.69359513     1.0401059     -4.8777779     -0.0043725197 
     57300   0.69945946     1.0489        -4.8671005      0.0014999676 
     57400   0.69163308     1.0371637     -4.8674358     -0.014996208  
     57500   0.69207006     1.0378189     -4.8835566     -0.053708381  
     57600   0.69573778     1.043319      -4.8637495     -0.0035805578 
     57700   0.68925653     1.0335998     -4.8524289     -0.010639202  
     57800   0.71219859     1.0680034     -4.8595264     -0.027354204  
     57900   0.70265663     1.0536944     -4.8294457      0.031881347  
     58000   0.69448487     1.0414402     -4.8510922     -0.023845742  
     58100   0.71020598     1.0650153     -4.8537541     -0.01247619   
     58200   0.69193862     1.0376219     -4.8465858     -0.019881308  
     58300   0.72349527     1.0849438     -4.8598472     -0.022445436  
     58400   0.71510282     1.0723586     -4.8533972     -0.0042392566 
     58500   0.69577161     1.0433697     -4.8592301     -0.024361986  
     58600   0.70941184     1.0638245     -4.8431675      0.036748024  
     58700   0.71207497     1.067818      -4.8476745      0.010192296  
     58800   0.70104206     1.0512732     -4.8642709     -0.036899214  
     58900   0.69489061     1.0420486     -4.8671573     -0.0090684487 
     59000   0.70889288     1.0630462     -4.8787851     -0.040500669  
     59100   0.71085649     1.0659908     -4.8560983     -0.014811813  
     59200   0.68888863     1.0330481     -4.8680952     -0.027902536  
     59300   0.70015043     1.0499362     -4.8586087     -0.013443827  
     59400   0.69092053     1.0360951     -4.8654411     -0.037437253  
     59500   0.69641574     1.0443357     -4.8674653     -0.027767431  
     59600   0.69772678     1.0463017     -4.846928       0.047381001  
     59700   0.69632688     1.0442024     -4.8747081     -0.015380064  
     59800   0.71136388     1.0667517     -4.8861333     -0.036291775  
     59900   0.69835191     1.0472391     -4.876332      -0.0017352247 
     60000   0.69068475     1.0357416     -4.8948929     -0.022373361  
     60100   0.70404783     1.0557807     -4.8716541      0.0036929844 
     60200   0.68708539     1.030344      -4.9022625     -0.03485129   
     60300   0.7076999      1.0612573     -4.8641276      0.048201453  
     60400   0.68529547     1.0276599     -4.8795756      0.010131829  
     60500   0.71085699     1.0659916     -4.8997997     -0.037982912  
     60600   0.68663398     1.0296671     -4.8790687     -0.014358247  
     60700   0.68456156     1.0265593     -4.8837182     -0.043272278  
     60800   0.69622597     1.0440511     -4.8814913     -0.0047314106 
     60900   0.70834776     1.0622288     -4.8766918     -0.0076392858 
     61000   0.68300369     1.0242231     -4.8890263     -0.047146465  
     61100   0.70384891     1.0554824     -4.8648163     -0.014423277  
     61200   0.69852723     1.047502      -4.870465      -0.030327496  
     61300   0.71204859     1.0677785     -4.8530634      0.022356341  
     61400   0.70514019     1.0574187     -4.8770185     -0.02307496   
     61500   0.69867008     1.0477163     -4.8526805      0.021619367  
     61600   0.7117841      1.0673819     -4.8585327      0.0019927678 
     61700   0.70690793     1.0600696     -4.8808844     -0.028923642  
     61800   0.71257575     1.068569      -4.8604857     -0.0048878653 
     61900   0.71065142     1.0656833     -4.8636783     -0.034714427  
     62000   0.69694912     1.0451355     -4.8450636     -3.3108346e-05
     62100   0.68599312     1.0287061     -4.8407755     -0.0024551363 
     62200   0.72012778     1.0798939     -4.8315707      0.02372288   
     62300   0.70680434     1.0599143     -4.8571397     -0.026213465  
     62400   0.71393645     1.0706095     -4.8436931      0.018609814  
     62500   0.68700794     1.0302279     -4.8550678     -0.021502979  
     62600   0.69542989     1.0428573     -4.8639007     -0.02746552   
     62700   0.71068478     1.0657333     -4.8619759      0.0094349845 
     62800   0.68830629     1.0321748     -4.8566054     -0.0013344896 
     62900   0.69774867     1.0463345     -4.8466431      0.024030621  
     63000   0.70452225     1.0564921     -4.8479679      0.0088094858 
     63100   0.69831212     1.0471795     -4.8265167      0.043448804  
     63200   0.6838309      1.0254636     -4.8589354     -0.025570489  
     63300   0.70143214     1.0518582     -4.8428037     -0.0073854765 
     63400   0.69731307     1.0456813     -4.8599857     -0.02590827   
     63500   0.69989966     1.0495601     -4.8555626     -0.00095534144
     63600   0.69536276     1.0427566     -4.8440811     -0.0037410583 
     63700   0.68516967     1.0274712     -4.851515      -0.0090300226 
     63800   0.69866219     1.0477044     -4.8775591     -0.043034871  
     63900   0.70849761     1.0624535     -4.8657173     -0.018733416  
     64000   0.70553748     1.0580145     -4.8435649      0.022122133  
     64100   0.70798573     1.0616859     -4.8641847     -0.0027843926 
     64200   0.70125905     1.0515986     -4.8610962      0.0043516859 
     64300   0.71049164     1.0654437     -4.8646614      0.007060536  
     64400   0.70064775     1.0506819     -4.8704057     -0.016590244  
     64500   0.69708037     1.0453324     -4.8711903     -0.023810003  
     64600   0.6906245      1.0356512     -4.8719368     -0.030509223  
     64700   0.70473816     1.0568159     -4.8970544     -0.037856314  
     64800   0.69406512     1.0408107     -4.8942834     -0.024926998  
     64900   0.69171174     1.0372816     -4.8557444      0.035714321  
     65000   0.71099222     1.0661944     -4.8711342      0.0065231108 
     65100   0.71580486     1.0734113     -4.8484122      0.050373607  
     65200   0.69549987     1.0429622     -4.8682344      0.019771412  
     65300   0.70715774     1.0604442     -4.8861867     -0.0021779251 
     65400   0.71353356     1.0700053     -4.888136       0.015365946  
     65500   0.72186317     1.0824963     -4.9145997     -0.033165028  
     65600   0.6958167      1.0434374     -4.8911768      0.020682924  
     65700   0.70344073     1.0548703     -4.8948782     -0.01726946   
     65800   0.71559004     1.0730892     -4.8735047     -0.00047510235
     65900   0.68731462     1.0306878     -4.8781105     -0.020611801  
     66000   0.68926023     1.0336054     -4.8820642     -0.048212267  
     66100   0.7063492      1.0592318     -4.8609369      0.0049947544 
     66200   0.70252114     1.0534913     -4.8687679     -0.026317499  
     66300   0.7098901      1.0645416     -4.8756733     -0.048514947  
     66400   0.6988116      1.0479285     -4.8809302     -0.0018079994 
     66500   0.70111122     1.051377      -4.8614875      0.039744642  
     66600   0.69905967     1.0483005     -4.8805684      0.015742448  
     66700   0.69899996     1.0482109     -4.8810787      0.012425972  
     66800   0.68935876     1.0337531     -4.8748777      0.006928916  
     66900   0.68002375     1.0197545     -4.8577435      0.037419394  
     67000   0.70175419     1.0523411     -4.8787848      0.0076857301 
     67100   0.70674941     1.0598319     -4.8871333     -0.0097845699 
     67200   0.70098291     1.0511845     -4.8892225     -0.0043441237 
     67300   0.71443844     1.0713623     -4.889915       0.00072421885
     67400   0.70456768     1.0565602     -4.8876011     -0.03120599   
     67500   0.70670378     1.0597635     -4.8839695     -0.01813888   
     67600   0.70210282     1.0528639     -4.8857492     -0.030357052  
     67700   0.69325649     1.0395981     -4.847214       0.027898707  
     67800   0.69753108     1.0460082     -4.8888042     -0.037567847  
     67900   0.71180925     1.0674196     -4.887425      -0.023380634  
     68000   0.70146302     1.0519045     -4.8795339     -0.045901998  
     68100   0.69492503     1.0421002     -4.8729666     -0.013099936  
     68200   0.68619031     1.0290018     -4.8535506      0.012085995  
     68300   0.69962715     1.0491515     -4.845615       0.021618444  
     68400   0.71883888     1.0779611     -4.8699257     -0.024395857  
     68500   0.72135084     1.081728      -4.8547562     -0.0017268888 
     68600   0.71938535     1.0787806     -4.8619743     -0.01879851   
     68700   0.7019883      1.0526922     -4.8589193     -0.0033902964 
     68800   0.69905917     1.0482997     -4.8555932     -0.00307449   
     68900   0.69871931     1.0477901     -4.8559285     -0.017924063  
     69000   0.6995961      1.0491049     -4.8672393     -0.049385709  
     69100   0.7024288      1.0533528     -4.8644406     -0.028529392  
     69200   0.7134659      1.0699039     -4.842491       0.015300949  
     69300   0.69580619     1.0434216     -4.8472418      0.026647791  
     69400   0.71996405     1.0796484     -4.8289628      0.055490411  
     69500   0.70500945     1.0572227     -4.8370088      0.017994587  
     69600   0.71028379     1.065132      -4.8651271     -0.012911796  
     69700   0.69444666     1.0413829     -4.8539048      0.0069148731 
     69800   0.69218646     1.0379935     -4.8766348     -0.021288344  
     69900   0.69831396     1.0471822     -4.8815228     -0.010448068  
     70000   0.68412043     1.0258978     -4.8751021     -0.014106892  
     70100   0.69769235     1.0462501     -4.8733445     -0.0089361583 
     70200   0.72201078     1.0827177     -4.8767186     -0.013139853  
     70300   0.71397303     1.0706643     -4.8572885      0.020501801  
     70400   0.70601389     1.0587289     -4.856756       0.024650621  
     70500   0.6976495      1.0461858     -4.8691544     -0.011726357  
     70600   0.71536763     1.0727557     -4.8728323     -0.02150628   
     70700   0.72001021     1.0797176     -4.8871401     -0.022872216  
     70800   0.69667113     1.0447187     -4.8861838     -0.039680784  
     70900   0.71269133     1.0687423     -4.8779148     -0.0039703543 
     71000   0.70650467     1.0594649     -4.8645508      0.027462706  
     71100   0.68825911     1.0321041     -4.8621127      0.032978714  
     71200   0.69753141     1.0460087     -4.8720414      0.012395872  
     71300   0.70095592     1.0511441     -4.8782909     -0.00054871624
     71400   0.70365543     1.0551922     -4.8696146      0.0016378947 
     71500   0.6894143      1.0338364     -4.863468      -0.010020157  
     71600   0.69508388     1.0423384     -4.8797299     -0.039206784  
     71700   0.69845607     1.0473953     -4.8732223     -0.014204464  
     71800   0.69170571     1.0372726     -4.8617952     -0.001501314  
     71900   0.68579434     1.028408      -4.8835175     -0.052854407  
     72000   0.70452422     1.056495      -4.8568633      0.0045386744 
     72100   0.70013703     1.0499161     -4.8667735     -0.044803776  
     72200   0.70479316     1.0568983     -4.8739669     -0.023569242  
     72300   0.69535119     1.0427393     -4.8879379     -0.025707353  
     72400   0.69584269     1.0434763     -4.8695249      0.0087331738 
     72500   0.6991893      1.0484949     -4.8699802     -0.0066990941 
     72600   0.70989312     1.0645462     -4.8967199     -0.036581033  
     72700   0.70250539     1.0534676     -4.8866459     -0.024214204  
     72800   0.69588017     1.0435325     -4.8853574     -0.033488222  
     72900   0.69509736     1.0423587     -4.8639024     -0.019029102  
     73000   0.70119029     1.0514955     -4.8821514     -0.049443214  
     73100   0.7043985      1.0563065     -4.8562053     -0.0027045334 
     73200   0.71372374     1.0702905     -4.8836422     -0.048181693  
     73300   0.70059067     1.0505964     -4.8605657      0.022507335  
     73400   0.70313394     1.0544102     -4.8797959     -0.020254388  
     73500   0.71725686     1.0755887     -4.8646967      0.011359705  
     73600   0.68641545     1.0293394     -4.8785459     -0.019009681  
     73700   0.70220416     1.0530159     -4.8452803      0.0094664741 
     73800   0.69738993     1.0457966     -4.8626546     -0.029344461  
     73900   0.71093784     1.0661128     -4.8712199     -0.054765381  
     74000   0.7054723      1.0579168     -4.8611871      0.0027558651 
     74100   0.68452089     1.0264983     -4.8835814     -0.044947565  
     74200   0.71209996     1.0678555     -4.8701322     -0.030262428  
     74300   0.70590475     1.0585653     -4.8662243     -0.012624387  
     74400   0.71304353     1.0692705     -4.8624289     -0.0054293227 
     74500   0.70907785     1.0633236     -4.8567108      0.0013882324 
     74600   0.70794171     1.0616199     -4.8591325      0.014246306  
     74700   0.71080706     1.0659167     -4.8710363     -0.025562367  
     74800   0.68264341     1.0236829     -4.857704      -0.023976857  
     74900   0.69876922     1.0478649     -4.8624685     -0.010817007  
     75000   0.68817556     1.0319788     -4.8721575     -0.037910315  
     75100   0.71804142     1.0767653     -4.8534093      0.013688201  
     75200   0.71055774     1.0655428     -4.8616783      0.013556172  
     75300   0.71125553     1.0665892     -4.8845606     -0.016785404  
     75400   0.699764       1.0493567     -4.8995652     -0.048651295  
     75500   0.6890925      1.0333538     -4.8719707      0.01668674   
     75600   0.68163173     1.0221658     -4.857632       0.026056027  
     75700   0.70924218     1.06357       -4.8666146      0.0073932783 
     75800   0.70944722     1.0638775     -4.8834074     -0.03386616   
     75900   0.70183921     1.0524686     -4.8727736      0.00050688136
     76000   0.69472863     1.0418057     -4.8803521     -0.021132612  
     76100   0.69465486     1.0416951     -4.8518309      0.0031029358 
     76200   0.70483444     1.0569602     -4.8684474     -0.014635178  
     76300   0.70431153     1.0561761     -4.8629826     -0.013582344  
     76400   0.70615076     1.0589342     -4.8714276      0.014081061  
     76500   0.69601377     1.0437329     -4.8676217      0.040004814  
     76600   0.69122751     1.0365555     -4.8597942      0.051642772  
     76700   0.70149929     1.0519589     -4.8635324      0.056120833  
     76800   0.70309891     1.0543577     -4.8847647      0.015241602  
     76900   0.71417813     1.0709719     -4.8921125     -0.007248646  
     77000   0.68874299     1.0328297     -4.8957797      0.0023494214 
     77100   0.69813897     1.0469198     -4.8897568     -0.0043332078 
     77200   0.71366514     1.0702026     -4.8826504      0.033186804  
     77300   0.7124269      1.0683458     -4.8903325      0.013876897  
     77400   0.6939517      1.0406406     -4.8941566     -0.015308835  
     77500   0.69975484     1.0493429     -4.8778306      0.025362063  
     77600   0.69903896     1.0482694     -4.9055795     -0.041501554  
     77700   0.68574818     1.0283387     -4.889905       0.014185732  
     77800   0.69517507     1.0424752     -4.886139       0.0022792849 
     77900   0.69138158     1.0367865     -4.8969846     -0.013508517  
     78000   0.68182377     1.0224538     -4.9014662     -0.018904681  
     78100   0.69152171     1.0369966     -4.8935988      0.0064941187 
     78200   0.71893454     1.0781046     -4.8914561      0.016665856  
     78300   0.69983591     1.0494645     -4.894799      -0.001116993  
     78400   0.6959748      1.0436744     -4.885076      -0.00061817004
     78500   0.69853432     1.0475127     -4.912991      -0.033255453  
     78600   0.7070184      1.0602353     -4.9109971     -0.030311408  
     78700   0.69448171     1.0414354     -4.8765997      0.045817221  
     78800   0.69726814     1.0456139     -4.8890535     -0.021378424  
     78900   0.68707159     1.0303233     -4.9000659      0.0056715156 
     79000   0.69843601     1.0473652     -4.9008408      0.007095806  
     79100   0.7149158      1.0720781     -4.9057807     -0.019055068  
     79200   0.69812841     1.046904      -4.8739816      0.024633542  
     79300   0.70500504     1.0572161     -4.8924339     -0.017496873  
     79400   0.72073773     1.0808086     -4.9115589     -0.034508346  
     79500   0.7090524      1.0632854     -4.8805406      0.015828662  
     79600   0.69617639     1.0439767     -4.8799595      0.02448132   
     79700   0.68554785     1.0280383     -4.8833502      0.016575808  
     79800   0.70995516     1.0646392     -4.8856486      0.018256691  
     79900   0.69112686     1.0364045     -4.8955585     -0.021598496  
     80000   0.70315362     1.0544397     -4.8925138     -0.0028953718 
     80100   0.69865808     1.0476983     -4.8852721      0.014496817  
     80200   0.69824298     1.0470758     -4.8687356      0.044407859  
     80300   0.70139438     1.0518016     -4.8774168      0.029018934  
     80400   0.69116289     1.0364586     -4.889303       0.013205837  
     80500   0.70409249     1.0558476     -4.9051119     -0.014723202  
     80600   0.69305765     1.0392999     -4.8939464      0.0098884223 
     80700   0.71097578     1.0661697     -4.8938742      0.018126614  
     80800   0.70619342     1.0589982     -4.8734833      0.066181813  
     80900   0.68067834     1.0207361     -4.883415       0.0020363061 
     81000   0.70372938     1.0553031     -4.8916822      0.0060507424 
     81100   0.70393658     1.0556138     -4.9006948     -0.0078481292 
     81200   0.68917354     1.0334754     -4.897692      -0.0094829958 
     81300   0.700057       1.0497961     -4.8961735     -0.028464751  
     81400   0.69754153     1.0460239     -4.8813971      0.020744365  
     81500   0.69983202     1.0494587     -4.8940833     -0.030847126  
     81600   0.70153437     1.0520115     -4.8745477     -0.014333709  
     81700   0.70633154     1.0592053     -4.8690389      0.0091214052 
     81800   0.70562148     1.0581405     -4.8847553      0.0056231583 
     81900   0.7008356      1.0509636     -4.8699232      0.0067017386 
     82000   0.70877096     1.0628634     -4.8821439     -0.01989885   
     82100   0.70498622     1.0571879     -4.8606026     -0.027257005  
     82200   0.7070725      1.0603164     -4.8728967     -0.030631444  
     82300   0.68148372     1.0219438     -4.8643647     -0.023905262  
     82400   0.71370212     1.0702581     -4.8649828      0.0071486987 
     82500   0.68984967     1.0344893     -4.8907431     -0.05863628   
     82600   0.70114015     1.0514203     -4.8767858     -0.013522015  
     82700   0.72421633     1.0860251     -4.8822879     -0.018184929  
     82800   0.69320603     1.0395224     -4.878029      -0.024145676  
     82900   0.6981198      1.0468911     -4.8768876      0.00078176047
     83000   0.69109062     1.0363502     -4.8697566      0.00320561   
     83100   0.70070426     1.0507667     -4.8755943     -0.012775955  
     83200   0.68562731     1.0281575     -4.8776557     -0.0087165241 
     83300   0.69372993     1.0403081     -4.8677012      0.013885828  
     83400   0.69476773     1.0418643     -4.877491      -0.00055577814
     83500   0.70499296     1.057198      -4.8669916      0.040890978  
     83600   0.70268878     1.0537426     -4.8582796      0.040635746  
     83700   0.69373598     1.0403171     -4.8845525     -0.0021852627 
     83800   0.7037375      1.0553153     -4.8886543      0.0089155734 
     83900   0.69983734     1.0494667     -4.8851166      0.010992857  
     84000   0.69118302     1.0364888     -4.8817053      0.016555978  
     84100   0.71070406     1.0657622     -4.8802707      0.013013334  
     84200   0.68796116     1.0316573     -4.8918514      0.010244935  
     84300   0.68406551     1.0258154     -4.8852457     -0.015687496  
     84400   0.70582928     1.0584521     -4.877782       0.0045379177 
     84500   0.69233667     1.0382188     -4.8729863     -0.020613761  
     84600   0.70520568     1.0575169     -4.8623913     -0.0043196821 
     84700   0.70005311     1.0497902     -4.8560506      0.01992537   
     84800   0.6890597      1.0333047     -4.8777805     -0.019566714  
     84900   0.72616553     1.0889481     -4.8518984      0.03974588   
     85000   0.69035364     1.035245      -4.874033      -0.023859825  
     85100   0.70791441     1.0615789     -4.8770353     -0.017082531  
     85200   0.71576455     1.0733509     -4.8816935     -0.0068402118 
     85300   0.69409161     1.0408504     -4.8534832      0.033071485  
     85400   0.71530815     1.0726665     -4.883876      -0.019540478  
     85500   0.68580104     1.028418      -4.871079       0.0086083109 
     85600   0.69175335     1.037344      -4.8746232      0.0016637423 
     85700   0.70518412     1.0574846     -4.8815645     -0.012426209  
     85800   0.69146742     1.0369152     -4.8911488      0.0027295081 
     85900   0.69553959     1.0430218     -4.883421      -0.0012965194 
     86000   0.70327736     1.0546253     -4.8884308     -0.0035487776 
     86100   0.6922913      1.0381507     -4.8985079     -0.018906037  
     86200   0.69277964     1.038883      -4.8983508     -0.025925215  
     86300   0.7061735      1.0589683     -4.899017      -0.024274293  
     86400   0.70307425     1.0543207     -4.8865204     -0.0015084572 
     86500   0.70755452     1.0610392     -4.8682526      0.01099068   
     86600   0.68955959     1.0340543     -4.9089341     -0.058479974  
     86700   0.7097107      1.0642726     -4.88739       -0.011157591  
     86800   0.71069016     1.0657414     -4.8777183      0.016166812  
     86900   0.70245058     1.0533854     -4.8880456     -0.022641711  
     87000   0.70659088     1.0595942     -4.8788558     -0.0047893656 
     87100   0.69438735     1.0412939     -4.8853295     -0.014080087  
     87200   0.7062176      1.0590344     -4.8568597      0.013864656  
     87300   0.69328657     1.0396432     -4.8672083     -0.0081640439 
     87400   0.70949429     1.0639481     -4.8747046     -0.011930877  
     87500   0.70718445     1.0604843     -4.8611365      0.022388791  
     87600   0.71086515     1.0660038     -4.8660951      0.013354909  
     87700   0.70151219     1.0519783     -4.8689297      0.018016012  
     87800   0.71300259     1.0692091     -4.8664466      0.0095645163 
     87900   0.69991141     1.0495777     -4.8669078     -0.0083135586 
     88000   0.69624614     1.0440813     -4.8486288      0.026780966  
     88100   0.69427001     1.041118      -4.858396      -0.01186729   
     88200   0.69400369     1.0407186     -4.863371       0.0026219246 
     88300   0.68918729     1.033496      -4.8573926     -0.015614163  
     88400   0.70083861     1.0509682     -4.8503873     -0.015741385  
     88500   0.69945615     1.048895      -4.8671289     -0.03590522   
     88600   0.69809764     1.0468578     -4.8498309     -0.0049906993 
     88700   0.71697918     1.0751723     -4.8592624     -0.01433049   
     88800   0.70185014     1.052485      -4.8458781     -0.001947657  
     88900   0.70945689     1.063892      -4.8816857     -0.063365925  
     89000   0.70618037     1.0589786     -4.8735922     -0.050291147  
     89100   0.68968852     1.0342476     -4.8594075     -0.021208439  
     89200   0.69015922     1.0349535     -4.845068       0.0057950699 
     89300   0.72314594     1.0844199     -4.8679532     -0.024927356  
     89400   0.69800666     1.0467214     -4.8469068     -0.012759851  
     89500   0.69762461     1.0461485     -4.8446801     -0.03186131   
     89600   0.69906484     1.0483082     -4.8435458     -0.022526718  
     89700   0.69950551     1.0489691     -4.851774      -0.011985113  
     89800   0.67929141     1.0186563     -4.8544251     -0.0160049    
     89900   0.71582759     1.0734454     -4.8628298     -0.042196752  
     90000   0.7142473      1.0710756     -4.829385       0.012952231  
     90100   0.69220741     1.0380249     -4.8439279     -0.042101716  
     90200   0.69965955     1.0492        -4.8398599     -0.021253048  
     90300   0.69279696     1.038909      -4.8270949     -0.010451968  
     90400   0.70393153     1.0556063     -4.8186732     -0.015459347  
     90500   0.69077265     1.0358734     -4.8286119     -0.018259886  
     90600   0.70376031     1.0553495     -4.8518462     -0.075527998  
     90700   0.70194049     1.0526205     -4.8408361     -0.050222989  
     90800   0.70014709     1.0499312     -4.8406485     -0.061012421  
     90900   0.69509227     1.042351      -4.8152441     -0.0099407434 
     91000   0.69818802     1.0469934     -4.8232759     -0.015712108  
     91100   0.70495358     1.0571389     -4.8369764     -0.029510749  
     91200   0.70055346     1.0505406     -4.8269003      0.0016983067 
     91300   0.69748709     1.0459423     -4.8522025     -0.05612814   
     91400   0.71930018     1.0786529     -4.8644977     -0.087370299  
     91500   0.7036272      1.0551499     -4.8641429     -0.054596949  
     91600   0.71120075     1.0665071     -4.8493944     -0.01920848   
     91700   0.69081858     1.0359423     -4.8705466     -0.052033302  
     91800   0.689828       1.0344568     -4.8612099     -0.0087549184 
     91900   0.70960622     1.0641159     -4.8814943     -0.016906146  
     92000   0.69065025     1.0356898     -4.8712415      0.0077157923 
     92100   0.70281582     1.0539331     -4.8742375      0.0036231482 
     92200   0.69591799     1.0435893     -4.8634464      0.025741006  
     92300   0.69841374     1.0473318     -4.8786126     -0.026773888  
     92400   0.6918558      1.0374977     -4.8541241      0.023026062  
     92500   0.70317843     1.0544769     -4.8779425     -0.02671457   
     92600   0.71233949     1.0682147     -4.8422569      0.037669604  
     92700   0.70184698     1.0524803     -4.8579084     -0.026999393  
     92800   0.69281865     1.0389415     -4.8329608      0.0071882042 
     92900   0.70093321     1.05111       -4.8547365     -0.019091379  
     93000   0.70485837     1.0569961     -4.845736       0.0066496009 
     93100   0.69735507     1.0457443     -4.8609226     -0.019704288  
     93200   0.70756438     1.061054      -4.8594493     -0.023306709  
     93300   0.70893652     1.0631117     -4.8550067     -0.010767724  
     93400   0.70048991     1.0504452     -4.8601724     -0.029014665  
     93500   0.7081061      1.0618664     -4.8650613     -0.021343398  
     93600   0.69594758     1.0436336     -4.8421789      0.025532126  
     93700   0.70328921     1.054643      -4.856361       0.0055780423 
     93800   0.69575936     1.0433514     -4.8384672      0.01395692   
     93900   0.69597098     1.0436687     -4.8417584      0.0069768235 
     94000   0.69350936     1.0399773     -4.8618887     -0.027095592  
     94100   0.70543261     1.0578573     -4.8558498     -0.019377609  
     94200   0.71306116     1.0692969     -4.8509169     -0.010856664  
     94300   0.70270865     1.0537724     -4.8431683      0.028760157  
     94400   0.70085421     1.0509915     -4.8627162     -0.052955742  
     94500   0.69363604     1.0401673     -4.8493618     -0.001292709  
     94600   0.71705731     1.0752895     -4.8679118     -0.032112439  
     94700   0.69581336     1.0434324     -4.8743636     -0.0047633038 
     94800   0.68983098     1.0344613     -4.8768526     -0.00027324473
     94900   0.68662573     1.0296547     -4.8733013     -0.0036939661 
     95000   0.69697662     1.0451768     -4.8653211     -0.009836219  
     95100   0.69451913     1.0414915     -4.8645586     -0.013748923  
     95200   0.70935308     1.0637363     -4.8687734      0.012967228  
     95300   0.71425048     1.0710804     -4.8771635      0.014037055  
     95400   0.69247998     1.0384337     -4.8822341     -0.021787959  
     95500   0.70522095     1.0575398     -4.8475423      0.050374727  
     95600   0.71945594     1.0788865     -4.886632      -0.019776741  
     95700   0.69949223     1.0489491     -4.8710429     -0.0031102495 
     95800   0.69540833     1.042825      -4.895049      -0.028785221  
     95900   0.71169105     1.0672423     -4.8838984     -0.0023188289 
     96000   0.703877       1.0555245     -4.8718024      0.036833578  
     96100   0.70133957     1.0517194     -4.8856494      0.0062314868 
     96200   0.69977782     1.0493774     -4.8911526     -0.0063625774 
     96300   0.69247801     1.0384307     -4.8789956      0.0089231963 
     96400   0.68819822     1.0320128     -4.8927781     -0.036169516  
     96500   0.70437048     1.0562645     -4.8823686     -0.016646966  
     96600   0.70166051     1.0522007     -4.8822428     -0.026946848  
     96700   0.7107944      1.0658977     -4.8949413     -0.031883792  
     96800   0.70602196     1.058741      -4.8849425     -0.012831913  
     96900   0.7110856      1.0663344     -4.8797626      0.017914412  
     97000   0.68996724     1.0346656     -4.8854746     -0.017999095  
     97100   0.69472448     1.0417995     -4.8903034      0.015144708  
     97200   0.68784204     1.0314787     -4.9101735     -0.036155717  
     97300   0.69832331     1.0471962     -4.8701016      0.020210858  
     97400   0.69961853     1.0491385     -4.905909      -0.054991254  
     97500   0.71198396     1.0676816     -4.8613566      0.036582777  
     97600   0.69841876     1.0473394     -4.8703101      0.034475037  
     97700   0.69813748     1.0469176     -4.8853887     -0.010006092  
     97800   0.70003024     1.0497559     -4.8826226     -0.0040195299 
     97900   0.69248986     1.0384485     -4.8784457     -0.013746385  
     98000   0.68723199     1.0305639     -4.8998905     -0.020255785  
     98100   0.69758767     1.0460931     -4.8817024     -0.0041759628 
     98200   0.70215325     1.0529396     -4.8927215     -0.0056716573 
     98300   0.70853215     1.0625053     -4.8857561      0.01026592   
     98400   0.69903386     1.0482618     -4.8810768      0.013498137  
     98500   0.70477808     1.0568757     -4.8746786      0.024215063  
     98600   0.70879993     1.0629068     -4.8918429     -0.017754081  
     98700   0.7023413      1.0532216     -4.889908      -0.03016629   
     98800   0.7006843      1.0507368     -4.8758641     -0.0026640519 
     98900   0.70301766     1.0542358     -4.8711551      0.0010579672 
     99000   0.71418103     1.0709763     -4.860786       0.008639199  
     99100   0.69709095     1.0453482     -4.8577899      0.028613337  
     99200   0.70788755     1.0615387     -4.8643786      0.0064549745 
     99300   0.70408164     1.0558314     -4.8635014      0.0063694114 
     99400   0.69500153     1.042215      -4.8924766     -0.02522065   
     99500   0.70520305     1.057513      -4.8692914      0.019221725  
     99600   0.7074885      1.0609402     -4.8680877      0.011684304  
     99700   0.70386159     1.0555014     -4.8806222     -0.011515428  
     99800   0.70186791     1.0525117     -4.8601869     -0.004619984  
     99900   0.69453851     1.0415206     -4.8582085     -0.022792405  
    100000   0.69237629     1.0382782     -4.8737288     -0.036485435  
    100100   0.69877924     1.04788       -4.8607548     -0.018427348  
    100200   0.7098487      1.0644796     -4.8783251     -0.023177208  
    100300   0.69554539     1.0430305     -4.8746659     -0.0066364158 
    100400   0.70337545     1.0547724     -4.8898001     -0.022582962  
    100500   0.70782135     1.0614394     -4.8703866      0.021477214  
    100600   0.69299537     1.0392065     -4.8745574     -0.0066900795 
    100700   0.69761025     1.0461269     -4.8728        -0.0078122614 
    100800   0.69074724     1.0358353     -4.8708396      0.017904325  
    100900   0.70805829     1.0617947     -4.8884473     -0.010596301  
    101000   0.71548379     1.0729299     -4.8771061      0.0079845991 
    101100   0.68975921     1.0343536     -4.8867207     -0.023587456  
    101200   0.70362722     1.0551499     -4.882804      -0.027992294  
    101300   0.69981275     1.0494298     -4.8715375      0.0030204489 
    101400   0.69000608     1.0347238     -4.88178       -0.018722909  
    101500   0.68793522     1.0316184     -4.8614528     -0.00047227336
    101600   0.69460213     1.041616      -4.873073      -0.013825842  
    101700   0.69448744     1.041444      -4.8650434     -0.001608585  
    101800   0.69378348     1.0403884     -4.8595614      0.021970238  
    101900   0.69682538     1.04495       -4.8709042      0.0060154951 
    102000   0.69545059     1.0428884     -4.8610689      0.018384396  
    102100   0.6972024      1.0455153     -4.8722869     -0.0033644261 
    102200   0.71168929     1.0672397     -4.8719448     -0.0050958635 
    102300   0.7121654      1.0679536     -4.873652      -0.0057029281 
    102400   0.69865847     1.0476988     -4.8473203      0.047101568  
    102500   0.71719836     1.075501      -4.8750168      0.026384535  
    102600   0.7132258      1.0695438     -4.8718424      0.023429857  
    102700   0.7174256      1.0758418     -4.8826354      0.012256255  
    102800   0.70437996     1.0562787     -4.8851638     -0.0063732752 
    102900   0.67604265     1.0137845     -4.8807691     -0.021735417  
    103000   0.67985966     1.0195084     -4.8929483     -0.046418986  
    103100   0.68434108     1.0262287     -4.8793258     -0.010181171  
    103200   0.68285588     1.0240015     -4.8953378     -0.04730846   
    103300   0.68954512     1.0340326     -4.8842078     -0.024888621  
    103400   0.71299386     1.069196      -4.8753687     -0.0054137829 
    103500   0.71648222     1.0744271     -4.8702735     -0.003583816  
    103600   0.69740099     1.0458131     -4.8641933     -0.035002391  
    103700   0.70192138     1.0525919     -4.8589341     -0.0093136622 
    103800   0.70341782     1.0548359     -4.8472079     -0.0010315493 
    103900   0.69938106     1.0487824     -4.8762827     -0.054881698  
    104000   0.70059313     1.0506        -4.8493773     -0.038686466  
    104100   0.68316066     1.0244585     -4.8386425     -0.033177837  
    104200   0.68076837     1.0208711     -4.8602909     -0.071794493  
    104300   0.67991104     1.0195854     -4.8606423     -0.082420336  
    104400   0.7028311      1.0539561     -4.8549963     -0.016284766  
    104500   0.69841916     1.04734       -4.8527018     -0.04680439   
    104600   0.70570374     1.0582638     -4.8521161     -0.012418464  
    104700   0.70184758     1.0524812     -4.8515721     -0.011532169  
    104800   0.7081446      1.0619241     -4.8542259     -0.033394852  
    104900   0.69711762     1.0453882     -4.8468978      0.008311915  
    105000   0.69732707     1.0457023     -4.8689058     -0.039765764  
    105100   0.69465299     1.0416923     -4.8752873     -0.040063923  
    105200   0.7192972      1.0786484     -4.855982      -0.005090533  
    105300   0.70490894     1.057072      -4.8667972     -0.024824122  
    105400   0.68869109     1.0327519     -4.8600008     -0.0089339448 
    105500   0.69728705     1.0456423     -4.8621249     -0.023380073  
    105600   0.71407897     1.0708232     -4.856605      -0.0099908904 
    105700   0.70581914     1.0584369     -4.844815       0.0085472697 
    105800   0.71312598     1.0693941     -4.8412946      0.025773752  
    105900   0.69127917     1.0366329     -4.8575765     -0.019592999  
    106000   0.69648416     1.0444383     -4.8598533     -0.041362863  
    106100   0.69142288     1.0368485     -4.8611939     -0.031455312  
    106200   0.69735504     1.0457442     -4.867598      -0.019267673  
    106300   0.69320669     1.0395234     -4.8610687      5.8487126e-05
    106400   0.70937952     1.063776      -4.8479659      0.024040571  
    106500   0.69563851     1.0431701     -4.8527387      0.024104211  
    106600   0.70885271     1.062986      -4.8504629      0.0040028304 
    106700   0.69319159     1.0395008     -4.846889       0.014429643  
    106800   0.70063613     1.0506645     -4.8566958      0.0060862449 
    106900   0.70618728     1.0589889     -4.8685343     -0.010146829  
    107000   0.71727693     1.0756188     -4.871509      -0.015025695  
    107100   0.70454506     1.0565263     -4.853611       0.01572084   
    107200   0.70933696     1.0637122     -4.8709928     -0.02951706   
    107300   0.70293043     1.054105      -4.875476      -0.010449946  
[...]
    973900   0.71299348     1.0691954     -4.9655591     -0.033927269  
    974000   0.70096556     1.0511585     -4.9619489     -0.033054704  
    974100   0.71456497     1.071552      -4.939583       0.026542481  
    974200   0.7008897      1.0510448     -4.9468657     -0.0042335921 
    974300   0.69290968     1.039078      -4.9616812     -0.036218465  
    974400   0.70691584     1.0600815     -4.9747234     -0.037922677  
    974500   0.7034659      1.054908      -4.9515334      0.01106945   
    974600   0.70739181     1.0607952     -4.9429184     -0.013381044  
    974700   0.7149616      1.0721468     -4.9518156     -0.011437446  
    974800   0.71288798     1.0690372     -4.943722       0.0034113611 
    974900   0.730912       1.0960658     -4.9568408     -0.047606262  
    975000   0.69126823     1.0366165     -4.9529895     -0.050640162  
    975100   0.70627583     1.0591217     -4.9507399     -0.03832411   
    975200   0.69947862     1.0489287     -4.9505577     -0.037561423  
    975300   0.69983803     1.0494677     -4.928936      -0.013456099  
    975400   0.71312441     1.0693918     -4.9390079     -0.016354502  
    975500   0.67946992     1.018924      -4.9346717     -0.026859112  
    975600   0.70269704     1.053755      -4.9336133     -0.03135717   
    975700   0.70325841     1.0545969     -4.9362641     -0.02122079   
    975800   0.71086136     1.0659981     -4.9414814     -0.045028909  
    975900   0.70926767     1.0636083     -4.9386375     -0.054794957  
    976000   0.70622518     1.0590458     -4.9424136     -0.014847466  
    976100   0.68536906     1.0277702     -4.9249642     -0.017169286  
    976200   0.69677521     1.0448747     -4.9408873     -0.042708407  
    976300   0.68481093     1.0269333     -4.9290757     -0.026878773  
    976400   0.70923783     1.0635635     -4.9390614     -0.032233665  
    976500   0.70674426     1.0598242     -4.9260543      0.0042206666 
    976600   0.70397568     1.0556725     -4.9435402     -0.027757224  
    976700   0.70451997     1.0564887     -4.9288739      0.021162486  
    976800   0.71497801     1.0721714     -4.9695425     -0.037608915  
    976900   0.71401704     1.0707303     -4.965082      -0.061875659  
    977000   0.7040116      1.0557263     -4.9559889     -0.038541338  
    977100   0.70196158     1.0526521     -4.926946       0.013261574  
    977200   0.68010536     1.0198768     -4.9444007     -0.014813101  
    977300   0.71636524     1.0742517     -4.945184      -0.026995102  
    977400   0.70738445     1.0607842     -4.9273703     -0.012049954  
    977500   0.70148019     1.0519303     -4.9431696     -0.036032999  
    977600   0.71292953     1.0690995     -4.9373132     -0.032056726  
    977700   0.69576155     1.0433547     -4.9153876     -0.017715998  
    977800   0.69782454     1.0464483     -4.9317604     -0.049029616  
    977900   0.70273797     1.0538164     -4.9446194     -0.053834764  
    978000   0.7065587      1.0595459     -4.9316539     -0.037928441  
    978100   0.71083464     1.0659581     -4.939123      -0.048767353  
    978200   0.69433514     1.0412156     -4.9083472      0.018654049  
    978300   0.69573534     1.0433154     -4.9221854     -0.0073564655 
    978400   0.69771246     1.0462802     -4.9322332     -0.0021806154 
    978500   0.69928627     1.0486403     -4.923265       0.0086931969 
    978600   0.70949136     1.0639437     -4.9383921     -0.025909852  
    978700   0.70915038     1.0634324     -4.9418623     -0.013459266  
    978800   0.70025046     1.0500862     -4.955472      -0.031950776  
    978900   0.69156073     1.0370552     -4.9588631     -0.038419348  
    979000   0.69822329     1.0470462     -4.9561055     -0.0024775018 
    979100   0.70342614     1.0548484     -4.959232      -0.033066867  
    979200   0.69818557     1.0469897     -4.9676814     -0.05330939   
    979300   0.70082947     1.0509544     -4.9482295     -0.043812194  
    979400   0.69298833     1.039196      -4.9508048     -0.046390259  
    979500   0.71150762     1.0669673     -4.9669863     -0.068196763  
    979600   0.69880396     1.047917      -4.9611616     -0.025612761  
    979700   0.70080788     1.0509221     -4.961182      -0.038554779  
    979800   0.71422768     1.0710462     -4.9656401     -0.032136856  
    979900   0.69159501     1.0371066     -4.9282512     -0.003745128  
    980000   0.69729334     1.0456517     -4.9419122     -0.0093241703 
    980100   0.71019288     1.0649957     -4.9459207     -0.016950285  
    980200   0.70740371     1.0608131     -4.9673277     -0.034563217  
    980300   0.71783882     1.0764614     -4.9590432      0.0015472693 
    980400   0.7018265      1.0524496     -4.9642221     -0.013699954  
    980500   0.6988771      1.0480267     -4.9637585     -0.022088721  
    980600   0.69299174     1.0392011     -4.9510412      0.026155968  
    980700   0.70489399     1.0570495     -4.9574878      0.023167094  
    980800   0.69413998     1.040923      -4.984696      -0.022401223  
    980900   0.71049647     1.065451      -4.9787463      0.011288978  
    981000   0.70502328     1.0572434     -4.9685418      0.0011748892 
    981100   0.70908561     1.0633352     -4.9563621      0.022716051  
    981200   0.68602496     1.0287538     -4.9411475      0.029708107  
    981300   0.69201362     1.0377343     -4.9362021      0.035110704  
    981400   0.69449056     1.0414487     -4.9439231      0.014689     
    981500   0.70268337     1.0537345     -4.9527799      0.021751019  
    981600   0.691021       1.0362458     -4.9639555     -0.0026969537 
    981700   0.7042565      1.0560936     -4.9685583     -0.037266804  
    981800   0.69766843     1.0462142     -4.9640499     -0.022999685  
    981900   0.71143938     1.0668649     -4.9614569     -0.012982363  
    982000   0.69132205     1.0366973     -4.955641       0.0083396446 
    982100   0.70088187     1.051033      -4.9809647     -0.04777804   
    982200   0.68665998     1.0297061     -4.979789      -0.048680153  
    982300   0.69744039     1.0458722     -4.9590505      0.0033299209 
    982400   0.71900256     1.0782066     -4.9827066     -0.022855115  
    982500   0.70435171     1.0562364     -4.9630909      0.015707645  
    982600   0.68285914     1.0240064     -4.9640465     -0.020095552  
    982700   0.71785426     1.0764846     -4.9738646     -0.02333526   
    982800   0.71269577     1.068749      -4.9539216     -0.010265229  
    982900   0.68339452     1.0248092     -4.9636742     -0.03168231   
    983000   0.70551419     1.0579796     -4.9647913     -0.026413844  
    983100   0.69540454     1.0428193     -4.9646979     -0.052969605  
    983200   0.69254879     1.0385368     -4.9585331     -0.027001848  
    983300   0.69248814     1.0384459     -4.957212      -0.021387677  
    983400   0.69282995     1.0389585     -4.9667406     -0.022275969  
    983500   0.69519386     1.0425034     -4.9566851      0.0021264284 
    983600   0.6917355      1.0373172     -4.9355156      0.040808817  
    983700   0.69719269     1.0455008     -4.972642      -0.019199063  
    983800   0.70138173     1.0517826     -4.9782357     -0.019194714  
    983900   0.71498015     1.0721746     -4.9745559     -0.0047790769 
    984000   0.71101674     1.0662311     -4.9741505      0.0079519546 
    984100   0.70359859     1.055107      -4.9737136      0.0043887257 
    984200   0.70368765     1.0552405     -4.9932877     -0.024587347  
    984300   0.70715417     1.0604389     -4.9597342      0.026260049  
    984400   0.69162692     1.0371544     -4.9687799     -0.021872451  
    984500   0.71373997     1.0703149     -4.9571812     -0.021355236  
    984600   0.70523034     1.0575539     -4.9630867     -0.010391982  
    984700   0.69155444     1.0370457     -4.9658893     -0.010163516  
    984800   0.69864841     1.0476838     -4.9719721     -0.014221064  
    984900   0.70574012     1.0583184     -4.9613783     -0.0084903344 
    985000   0.70855278     1.0625362     -4.9823067     -0.028809505  
    985100   0.70193002     1.0526048     -4.9811978     -0.020969448  
    985200   0.70789769     1.0615539     -4.9727612     -0.010853748  
    985300   0.71493198     1.0721024     -4.9736112     -0.0050258755 
    985400   0.69762161     1.046144      -4.950608       0.024967777  
    985500   0.69694059     1.0451227     -4.9662236     -0.014475933  
    985600   0.70778812     1.0613895     -4.9514078      0.0055369581 
    985700   0.70841155     1.0623244     -4.9747691     -0.041358303  
    985800   0.71563459     1.073156      -4.9628718     -0.025853758  
    985900   0.70352728     1.055         -4.9498462     -0.0029412535 
    986000   0.69941421     1.0488321     -4.9603582     -0.036822401  
    986100   0.71043087     1.0653526     -4.9427493     -0.01309141   
    986200   0.69866789     1.047713      -4.9530662     -0.040234695  
    986300   0.70685875     1.0599959     -4.9550901     -0.045303823  
    986400   0.70442959     1.0563531     -4.9526152     -0.019717813  
    986500   0.68469262     1.0267558     -4.9615346     -0.028008687  
    986600   0.71715284     1.0754328     -4.9626387     -0.034938495  
    986700   0.70037717     1.0502762     -4.9557871     -0.028260683  
    986800   0.68943516     1.0338677     -4.9510595     -0.026256738  
    986900   0.70114476     1.0514273     -4.9529005     -0.004861985  
    987000   0.70343169     1.0548567     -4.9558875     -0.033560303  
    987100   0.69281084     1.0389298     -4.9550392     -0.017113742  
    987200   0.71141722     1.0668317     -4.9588332     -0.030338886  
    987300   0.7029336      1.0541098     -4.9514127     -0.030961868  
    987400   0.69709267     1.0453508     -4.9395537     -0.033419725  
    987500   0.69938571     1.0487894     -4.9293895     -0.015581655  
    987600   0.68823757     1.0320718     -4.9365588     -0.028901358  
    987700   0.70596041     1.0586487     -4.9459926     -0.050618234  
    987800   0.7071953      1.0605006     -4.9226833     -0.0026658657 
    987900   0.7034076      1.0548206     -4.9276111     -0.018333396  
    988000   0.69680391     1.0449178     -4.9482409     -0.059322743  
    988100   0.69857684     1.0475764     -4.9263726     -0.012286687  
    988200   0.70367507     1.0552217     -4.936898      -0.064365032  
    988300   0.68411301     1.0258867     -4.9204834     -0.0054455616 
    988400   0.69375065     1.0403391     -4.9116014      0.010321283  
    988500   0.71206969     1.0678101     -4.9362122     -0.045785827  
    988600   0.70284748     1.0539806     -4.9308731     -0.035974888  
    988700   0.69515478     1.0424448     -4.944998      -0.063025763  
    988800   0.70534141     1.0577205     -4.9394517     -0.040181046  
    988900   0.71476151     1.0718468     -4.9178845     -0.0074683048 
    989000   0.70668621     1.0597371     -4.9282293     -0.034841523  
    989100   0.69427801     1.04113       -4.9320461     -0.051396081  
    989200   0.69818928     1.0469953     -4.9293674     -0.040455749  
    989300   0.70260851     1.0536223     -4.9505598     -0.082385742  
    989400   0.70067865     1.0507283     -4.932999      -0.017259521  
    989500   0.70393079     1.0556051     -4.9169554     -0.0015537019 
    989600   0.71166215     1.067199      -4.9581294     -0.07472981   
    989700   0.69594891     1.0436356     -4.9533351     -0.052827502  
    989800   0.7052409      1.0575698     -4.9393247     -0.025273139  
    989900   0.70857033     1.0625625     -4.9510749     -0.057289016  
    990000   0.69335627     1.0397477     -4.9372837     -0.023053486  
    990100   0.71977565     1.0793659     -4.9369198      0.007030451  
    990200   0.68759635     1.0311102     -4.9356081      0.02627056   
    990300   0.70124284     1.0515743     -4.9367058      0.01659424   
    990400   0.70603956     1.0587674     -4.9636157     -0.031626793  
    990500   0.70430485     1.0561661     -4.959358      -0.011518814  
    990600   0.69002106     1.0347463     -4.9603573     -0.017250599  
    990700   0.68307046     1.0243233     -4.9716404     -0.037111025  
    990800   0.70270034     1.05376       -4.9512178      5.8712983e-05
    990900   0.71538878     1.0727874     -4.9764253     -0.040646784  
    991000   0.69702404     1.0452479     -4.9613083     -0.020530801  
    991100   0.70749554     1.0609508     -4.9627344     -0.025530599  
    991200   0.70236544     1.0532578     -4.9478192     -0.010660039  
    991300   0.68421001     1.0260321     -4.9581218     -0.019617441  
    991400   0.71183599     1.0674597     -4.9712471     -0.03649397   
    991500   0.69539736     1.0428085     -4.9737658     -0.040816251  
    991600   0.70711339     1.0603777     -4.9502245     -0.0067306061 
    991700   0.70696339     1.0601528     -4.9494174      0.012075016  
    991800   0.70386669     1.055509      -4.9457754      0.028341052  
    991900   0.68319123     1.0245044     -4.9687667     -0.058045887  
    992000   0.6947464      1.0418324     -4.9446696      0.0062194586 
    992100   0.69730053     1.0456625     -4.9465747     -0.0076203978 
    992200   0.71011469     1.0648784     -4.950395      -0.002269402  
    992300   0.70800948     1.0617215     -4.9519847     -0.021933432  
    992400   0.70973        1.0643016     -4.9668155     -0.03653002   
    992500   0.69091007     1.0360794     -4.9698726     -0.052035933  
    992600   0.70591494     1.0585805     -4.9529792     -0.011559     
    992700   0.69729269     1.0456507     -4.9531119     -0.016517113  
    992800   0.7122959      1.0681494     -4.9480266     -0.008919122  
    992900   0.70544589     1.0578772     -4.951451      -0.039746604  
    993000   0.69793963     1.0466209     -4.9398817     -0.036997561  
    993100   0.70141545     1.0518332     -4.9296675     -0.024251446  
    993200   0.7300399      1.094758      -4.9430196     -0.023115546  
    993300   0.69625686     1.0440974     -4.955196      -0.062762535  
    993400   0.69072834     1.0358069     -4.9099533      0.0091428673 
    993500   0.70548686     1.0579386     -4.9176259     -0.0036704365 
    993600   0.70455971     1.0565483     -4.9242775     -0.047243588  
    993700   0.69619846     1.0440098     -4.940359      -0.060687114  
    993800   0.69268613     1.0387428     -4.9503239     -0.062335453  
    993900   0.71083345     1.0659563     -4.9460072     -0.024425137  
    994000   0.68897128     1.0331721     -4.9533653     -0.039554871  
    994100   0.69423547     1.0410662     -4.9596031     -0.057621785  
    994200   0.70098691     1.0511905     -4.9560516     -0.032581032  
    994300   0.69209081     1.0378501     -4.9595605     -0.033948781  
    994400   0.70366709     1.0552097     -4.9678145     -0.048283967  
    994500   0.7049863      1.057188      -4.9601506     -0.015462221  
    994600   0.70102703     1.0512507     -4.9466764      0.0009950443 
    994700   0.69791123     1.0465783     -4.9449836     -0.028595165  
    994800   0.70547626     1.0579227     -4.9498709     -0.007851712  
    994900   0.69172011     1.0372942     -4.9587524     -0.033218814  
    995000   0.6915162      1.0369884     -4.9587338     -0.037085365  
    995100   0.70228613     1.0531388     -4.9713446     -0.054083164  
    995200   0.69601507     1.0437348     -4.9641985     -0.0048662998 
    995300   0.6951219      1.0423954     -4.9620643     -0.045933676  
    995400   0.72030577     1.0801608     -4.9596726     -0.029407499  
    995500   0.69928618     1.0486402     -4.9629295     -0.056031863  
    995600   0.71211881     1.0678838     -4.9245932      0.025884195  
    995700   0.69122136     1.0365463     -4.965425      -0.0532945    
    995800   0.70588476     1.0585353     -4.9401477     -0.026404713  
    995900   0.70741413     1.0608287     -4.9381175     -0.018454564  
    996000   0.70499868     1.0572065     -4.9685591     -0.076581134  
    996100   0.70164632     1.0521794     -4.9575343     -0.024183971  
    996200   0.68572044     1.0282971     -4.9234466      0.030094129  
    996300   0.71370177     1.0702576     -4.9551292     -0.030960085  
    996400   0.69987918     1.0495294     -4.9528547     -0.021650533  
    996500   0.69078085     1.0358857     -4.9736933     -0.081854587  
    996600   0.70083089     1.0509566     -4.9553844     -0.025359107  
    996700   0.69918294     1.0484853     -4.9570781     -0.068630445  
    996800   0.7102881      1.0651385     -4.9398789     -0.016565829  
    996900   0.69126684     1.0366144     -4.9429508     -0.042566322  
    997000   0.69620636     1.0440217     -4.9175084      0.021103358  
    997100   0.7010143      1.0512316     -4.9511334     -0.041723697  
    997200   0.69166549     1.0372123     -4.9325234     -0.019421391  
    997300   0.6968568      1.0449971     -4.9370195     -0.030226973  
    997400   0.70417535     1.0559719     -4.9469808     -0.043681095  
    997500   0.7004399      1.0503703     -4.9391958     -0.0087896223 
    997600   0.71000058     1.0647073     -4.9548549     -0.027200341  
    997700   0.70004285     1.0497748     -4.9298652      0.014175778  
    997800   0.68963917     1.0341736     -4.9681992     -0.071423455  
    997900   0.7111243      1.0663924     -4.9549636     -0.030495464  
    998000   0.70757409     1.0610686     -4.9501987     -0.013712488  
    998100   0.67656877     1.0145734     -4.9520763     -0.03864678   
    998200   0.69734469     1.0457287     -4.9305293      0.023003114  
    998300   0.68690844     1.0300787     -4.9625155     -0.05108448   
    998400   0.71711635     1.075378      -4.9368136     -0.01597773   
    998500   0.70145397     1.0518909     -4.9475004     -0.040075169  
    998600   0.70061088     1.0506267     -4.936168      -0.02928896   
    998700   0.6990711      1.0483176     -4.9398246     -0.027007137  
    998800   0.70623991     1.0590679     -4.943079      -0.031818063  
    998900   0.70144987     1.0518848     -4.931692      -0.025806331  
    999000   0.71527573     1.0726179     -4.9462152     -0.044975848  
    999100   0.67762859     1.0161627     -4.9341616     -0.047913351  
    999200   0.69779937     1.0464105     -4.918214      -0.020967788  
    999300   0.68908175     1.0333377     -4.9301563     -0.011653414  
    999400   0.69529725     1.0426584     -4.9444913     -0.059575651  
    999500   0.69057998     1.0355844     -4.9347046     -0.026385509  
    999600   0.71493418     1.0721057     -4.933353      -0.018563122  
    999700   0.70779593     1.0614012     -4.9388731     -0.043450658  
    999800   0.69893144     1.0481082     -4.915355      -0.030867876  
    999900   0.68301996     1.0242475     -4.9452507     -0.064132698  
   1000000   0.69732669     1.0457017     -4.9492601     -0.060710893  
Loop time of 244.257 on 1 procs for 200000 steps with 3628 atoms

Performance: 353726.167 tau/day, 818.811 timesteps/s, 2.971 Matom-step/s
99.8% CPU use with 1 MPI tasks x 1 OpenMP threads

MPI task timing breakdown:
Section |  min time  |  avg time  |  max time  |%varavg| %total
---------------------------------------------------------------
Pair    | 141.15     | 141.15     | 141.15     |   0.0 | 57.79
Neigh   | 68.864     | 68.864     | 68.864     |   0.0 | 28.19
Comm    | 2.7694     | 2.7694     | 2.7694     |   0.0 |  1.13
Output  | 5.6934     | 5.6934     | 5.6934     |   0.0 |  2.33
Modify  | 24.145     | 24.145     | 24.145     |   0.0 |  9.89
Other   |            | 1.64       |            |       |  0.67

Nlocal:           3628 ave        3628 max        3628 min
Histogram: 1 0 0 0 0 0 0 0 0 0
Nghost:           3229 ave        3229 max        3229 min
Histogram: 1 0 0 0 0 0 0 0 0 0
Neighs:         116417 ave      116417 max      116417 min
Histogram: 1 0 0 0 0 0 0 0 0 0

Total # of neighbors = 116417
Ave neighs/atom = 32.088479
Neighbor list builds = 21633
Dangerous builds = 0
Total wall time: 0:20:11
