LAMMPS (10 Sep 2025 - Development - patch_10Sep2025-660-g792d014343)
OMP_NUM_THREADS environment is not set. Defaulting to 1 thread.
  using 1 OpenMP thread(s) per MPI task
# Defining essential variables

units lj
atom_style  hybrid sphere molecular
WARNING: Atom style hybrid defines both, per-type and per-atom masses; both must be set, but only per-atom masses will be used (src/atom_vec_hybrid.cpp:132)
boundary p p p
pair_style hybrid lj/cut 2.0 cosine/squared 0.12




# Creating simulation box

region box block 0 30.0 0 30.0 0 30.0
create_box 2 box
Created orthogonal box = (0 0 0) to (30 30 30)
  1 by 1 by 1 MPI processor grid




# Loading and creating molecule from the given template

molecule patchy_part patchy_molecule.mol
Read molecule template patchy_part:
(no title)
  1 molecules
  0 fragments
  0 bodies
  3 atoms with max type 2
  0 bonds with max type 0
  0 angles with max type 0
  0 dihedrals with max type 0
  0 impropers with max type 0
create_atoms 0 random 1000 87910 NULL mol patchy_part 454756 overlap 1.5 maxtry 50
Created 3000 atoms
  using lattice units in orthogonal box = (0 0 0) to (30 30 30)
  create_atoms CPU = 0.378 seconds



pair_modify shift yes
WARNING: pair_modify shift has no effect on pair_style cosine/squared (src/EXTRA-PAIR/pair_cosine_squared.cpp:219)
# Defining particle properties and interaction parameters among the particles

pair_coeff 1 1 lj/cut 1.0 1.0 1.1224
pair_coeff 1 2 none
pair_coeff 2 2 cosine/squared 8 0.3 0.35        # Gaussian potential for peripheral atoms

set type 1 mass 1.0
Setting atom values ...
  1000 settings made for mass
set type 2 mass 0.000001
Setting atom values ...
  2000 settings made for mass

set type 1 diameter 1.0
Setting atom values ...
  1000 settings made for diameter
set type 2 diameter 0.0
Setting atom values ...
  2000 settings made for diameter




# Grouping the particles in different set to apply different fixes

group core type 1
1000 atoms in group core
group patch type 2
2000 atoms in group patch
group rigid_molecule type 1 2
3000 atoms in group rigid_molecule




# Speeding up simulation by excluding the unnecessary calculation of particles within the molecule

neigh_modify exclude molecule/intra rigid_molecule every 1 delay 0 check no




# Setting up thermostat on the brownian particles while the patches are being treated just an interaction cites

fix thermo_stat  core langevin 0.5 0.5 0.1 428984  omega yes




# Exporting the simulation data

dump 1 all custom 10000 simulation_data.lammpstrj id type x y z mol
fix rigid_thermo rigid_molecule rigid/small molecule
Fix rigid/small setup ...
  create bodies CPU = 0.000 seconds
  1000 rigid bodies with 3000 atoms
  0.5 = max distance from body owner to body atom




# Computing temperature and kinetic energy just on the central core particles

compute kinetic_core core ke
fix kinetic_output core ave/time 100 1 100 c_kinetic_core file kinetic.dat mode scalar

compute temp_core core temp/sphere
fix temp_output core ave/time 100 1 100 c_temp_core file temperature.dat mode scalar




# Defining the time step achieved in lj unit with each simulation step

timestep 0.005                               # Set timestep




# Specifying the parameters to be printed on the terminal

thermo 100
thermo_style custom step temp ke pe press c_kinetic_core c_temp_core




# Running the simulation

run 1000000
Generated 0 of 1 mixed pair_coeff terms from geometric mixing rule
Neighbor list info ...
  update: every = 1 steps, delay = 0 steps, check = no
  max neighbors/atom: 2000, page size: 100000
  master list distance cutoff = 1.4224
  ghost atom cutoff = 1.4224
  binsize = 0.7112, bins = 43 43 43
  3 neighbor lists, perpetual/occasional/extra = 3 0 0
  (1) pair lj/cut, perpetual, skip from (3)
      attributes: half, newton on
      pair build: skip
      stencil: none
      bin: none
  (2) pair cosine/squared, perpetual, skip from (3)
      attributes: half, newton on
      pair build: skip
      stencil: none
      bin: none
  (3) neighbor class addition, perpetual
      attributes: half, newton on
      pair build: half/bin/newton
      stencil: half/bin/3d
      bin: standard
WARNING: Computing temperature of portions of rigid bodies (src/RIGID/fix_rigid_small.cpp:1110)
Per MPI rank memory allocation (min/avg/max) = 13.68 | 13.68 | 13.68 Mbytes
   Step          Temp          KinEng         PotEng         Press      c_kinetic_core  c_temp_core  
         0   0              0              0              0.1331376      0              0            
       100   0.49015035     0.2448301      0.00017696616  0.018339682    0.24482877     0.49993565   
       200   0.50615895     0.2528264      0.00093188155  0.019634555    0.25282502     0.51359817   
       300   0.52379687     0.26163654    -0.0025190495   0.019674905    0.2616352      0.50750268   
       400   0.50975783     0.25462404    -0.010197622    0.019505696    0.25462269     0.49760654   
       500   0.50443243     0.251964      -0.018240318    0.018948426    0.2519627      0.50069619   
       600   0.47493111     0.23722809    -0.022308241    0.019431723    0.23722679     0.48870145   
       700   0.49866066     0.249081      -0.027698357    0.019039729    0.24907967     0.50196966   
       800   0.50095056     0.25022481    -0.034032216    0.01941221     0.2502235      0.49034117   
       900   0.48425794     0.24188684    -0.03570473     0.019732958    0.24188551     0.49365671   
      1000   0.49834406     0.24892286    -0.045931983    0.020848242    0.24892158     0.4892448    
      1100   0.48859725     0.24405433    -0.051430172    0.017554501    0.244053       0.49273665   
      1200   0.50214044     0.25081915    -0.052182164    0.017116034    0.25081779     0.49715604   
      1300   0.47535162     0.23743814    -0.061510164    0.017736758    0.23743682     0.49018263   
      1400   0.51448136     0.25698344    -0.0785738      0.020957726    0.25698208     0.51267176   
      1500   0.52446816     0.26197185    -0.087932469    0.020487292    0.2619705      0.49747204   
      1600   0.5043919      0.25194375    -0.098321093    0.020093913    0.25194242     0.49933706   
      1700   0.49056959     0.24503951    -0.10432766     0.018717367    0.24503823     0.49429292   
      1800   0.4872641      0.24338842    -0.11213004     0.017690934    0.24338708     0.50021989   
      1900   0.5056715      0.25258291    -0.1164393      0.020679098    0.25258157     0.5082994    
      2000   0.50842786     0.25395972    -0.12074154     0.0158626      0.25395839     0.50176476   
      2100   0.51558803     0.25753622    -0.12385886     0.019338354    0.25753488     0.51189396   
      2200   0.50918973     0.25434027    -0.13064021     0.019564644    0.2543389      0.51338178   
      2300   0.51045239     0.25497097    -0.13567332     0.020204465    0.2549696      0.52113486   
      2400   0.51414749     0.25681667    -0.1369515      0.02353555     0.2568153      0.51366637   
      2500   0.49151897     0.24551372    -0.14743615     0.019893114    0.24551237     0.50507256   
      2600   0.49605324     0.24777859    -0.15438334     0.022676797    0.24777726     0.49837911   
      2700   0.50304707     0.25127201    -0.15346874     0.022789655    0.25127071     0.50120857   
      2800   0.50854748     0.25401947    -0.15786128     0.019746099    0.25401814     0.50123854   
      2900   0.49950206     0.24950128    -0.16794611     0.022018203    0.24949998     0.49497871   
      3000   0.50483929     0.25216723    -0.19288038     0.01857335     0.2521659      0.50713154   
      3100   0.4961962      0.24785       -0.19892231     0.019640411    0.24784869     0.49972224   
      3200   0.49553557     0.24752002    -0.20707027     0.017739406    0.24751868     0.49848362   
      3300   0.51558447     0.25753444    -0.21325292     0.018857383    0.25753314     0.49341025   
      3400   0.49712865     0.24831576    -0.22146066     0.01758105     0.24831446     0.49144612   
      3500   0.52068333     0.26008132    -0.23308007     0.019461337    0.26007998     0.5055926    
      3600   0.47267709     0.23610221    -0.23937206     0.018190457    0.23610089     0.49145333   
      3700   0.49289827     0.24620269    -0.2489445      0.01827177     0.24620137     0.49231286   
      3800   0.51006928     0.25477961    -0.26385701     0.021673289    0.25477828     0.50076712   
      3900   0.49701579     0.24825938    -0.27247085     0.012400766    0.24825804     0.49654573   
      4000   0.48949248     0.24450149    -0.28026553     0.012692077    0.24450015     0.49848812   
      4100   0.49153543     0.24552195    -0.29245421     0.015591208    0.24552063     0.4948136    
      4200   0.50737463     0.25343363    -0.30373358     0.019709681    0.25343224     0.51641618   
      4300   0.49268199     0.24609466    -0.31271632     0.018041425    0.24609334     0.49638543   
      4400   0.48938531     0.24444796    -0.31925615     0.01839766     0.24444667     0.48887932   
      4500   0.49913424     0.24931755    -0.31900802     0.014942235    0.24931619     0.50135861   
      4600   0.49925644     0.24937859    -0.33557136     0.019224261    0.24937725     0.5032942    
      4700   0.49895641     0.24922873    -0.35195834     0.017774917    0.24922736     0.51022454   
      4800   0.5027414      0.25111933    -0.36887425     0.018879786    0.25111799     0.50262384   
      4900   0.49774095     0.24862161    -0.36889921     0.012985462    0.2486203      0.49127188   
      5000   0.47811666     0.23881927    -0.37382409     0.019253937    0.23881798     0.48870928   
      5100   0.50966946     0.25457989    -0.3892767      0.022455335    0.25457852     0.51227754   
      5200   0.52502884     0.2622519     -0.40460199     0.018467915    0.26225053     0.51030215   
      5300   0.50907816     0.25428454    -0.42377918     0.021373671    0.25428317     0.50870352   
      5400   0.50273203     0.25111465    -0.43185404     0.021049141    0.25111332     0.49682304   
      5500   0.50592224     0.25270816    -0.43876444     0.016925824    0.25270682     0.5014552    
      5600   0.50507537     0.25228515    -0.45167045     0.017557176    0.25228383     0.49829452   
      5700   0.50371466     0.25160547    -0.46198493     0.01739991     0.25160413     0.50253152   
      5800   0.48640096     0.24295728    -0.47183075     0.015855133    0.24295595     0.49862962   
      5900   0.50255084     0.25102414    -0.47844674     0.020762539    0.2510228      0.50467099   
      6000   0.48411751     0.2418167     -0.48920987     0.022572022    0.24181537     0.48812992   
      6100   0.48292739     0.24122223    -0.49728544     0.014960933    0.24122092     0.49128384   
      6200   0.49280307     0.24615513    -0.50503567     0.019643112    0.2461538      0.49822799   
      6300   0.49846825     0.24898489    -0.51221938     0.011773162    0.24898358     0.49439799   
      6400   0.50886812     0.25417963    -0.52200664     0.01756555     0.25417828     0.50594664   
      6500   0.51672923     0.25810625    -0.52826756     0.01085258     0.25810496     0.5032649    
      6600   0.51914835     0.2593146     -0.53964742     0.017469379    0.25931325     0.50763401   
      6700   0.49262241     0.24606489    -0.54339307     0.010518874    0.24606356     0.49124153   
      6800   0.49683481     0.24816899    -0.54768319     0.0080636717   0.24816762     0.51267861   
      6900   0.49593883     0.24772144    -0.55492431     0.019633041    0.24772013     0.49461255   
      7000   0.50291434     0.25120571    -0.55107427     0.02050216     0.25120434     0.51161049   
      7100   0.49338306     0.24644484    -0.56303236     0.0092715962   0.24644354     0.49109561   
      7200   0.48754996     0.24353121    -0.56001589     0.012487359    0.24352991     0.49626927   
      7300   0.51797308     0.25872755    -0.5686246      0.019103381    0.25872622     0.50042037   
      7400   0.5242787      0.26187721    -0.58151167     0.024101804    0.26187587     0.51103335   
      7500   0.52119229     0.26033555    -0.58172697     0.018260953    0.26033419     0.50932032   
      7600   0.49718204     0.24834243    -0.58685535     0.015183124    0.24834109     0.49996332   
      7700   0.4968087      0.24815595    -0.59606528     0.0018720372   0.24815464     0.49210272   
      7800   0.49432539     0.24691553    -0.59461161     0.011236472    0.24691421     0.49393303   
      7900   0.51939306     0.25943683    -0.5934376      0.016512672    0.25943546     0.5086251    
      8000   0.49557641     0.24754042    -0.60055861     0.017076146    0.24753908     0.50472844   
      8100   0.51707917     0.25828105    -0.60360991     0.016193998    0.25827968     0.51319572   
      8200   0.48776014     0.24363619    -0.61311607     0.01240912     0.24363489     0.48737334   
      8300   0.51436309     0.25692437    -0.61608013     0.017758253    0.25692308     0.49752298   
      8400   0.52612587     0.26279987    -0.62469467     0.019787716    0.26279854     0.50923404   
      8500   0.5189325      0.25920678    -0.63117355     0.0079658937   0.25920544     0.51102535   
      8600   0.49511807     0.24731148    -0.64110572     0.0039106676   0.24731017     0.49756966   
      8700   0.50489403     0.25219457    -0.65013286     0.011515305    0.25219324     0.49589009   
      8800   0.51581462     0.2576494     -0.64777121     0.010506841    0.25764807     0.50757729   
      8900   0.51203716     0.25576256    -0.6596622      0.014563661    0.25576124     0.49691436   
      9000   0.51012888     0.25480937    -0.66021403     0.0092582415   0.25480801     0.50790835   
      9100   0.51367645     0.25658139    -0.66791068     0.010876705    0.25658002     0.50937331   
      9200   0.49413599     0.24682093    -0.6695307      0.011874337    0.24681958     0.49954894   
      9300   0.50568933     0.25259182    -0.67604965     0.01390808     0.25259048     0.50290937   
      9400   0.50578555     0.25263988    -0.67950649     0.01853843     0.25263855     0.50251085   
      9500   0.49140309     0.24545584    -0.69142005     0.0084760384   0.2454545      0.49492717   
      9600   0.49080118     0.24515519    -0.68967819     0.0085023604   0.24515386     0.49489415   
      9700   0.52917645     0.26432364    -0.69615796     0.014595763    0.2643223      0.51071452   
      9800   0.49492942     0.24721725    -0.697934       0.0161806      0.2472159      0.49401168   
      9900   0.50542378     0.25245918    -0.71416732     0.013429551    0.25245778     0.51660529   
     10000   0.49994544     0.24972275    -0.71834471     0.011432111    0.24972139     0.50418173   
     10100   0.51957985     0.25953014    -0.72564909     0.019051513    0.25952877     0.51139667   
     10200   0.48765689     0.24358461    -0.72919062     0.014395622    0.24358334     0.48323017   
     10300   0.48735163     0.24343214    -0.73378313     0.0096745593   0.24343085     0.48533988   
     10400   0.50582428     0.25265923    -0.74712097     0.02106003     0.25265788     0.50629331   
     10500   0.5087272      0.25410924    -0.75250656     0.017514144    0.25410787     0.51161132   
     10600   0.47227256     0.23590015    -0.75263602     0.0051205926   0.23589879     0.4920114    
     10700   0.48954164     0.24452605    -0.7595103      0.020012438    0.24452479     0.47882118   
     10800   0.48848536     0.24399844    -0.76968617     0.012336954    0.24399712     0.49658318   
     10900   0.49271546     0.24611137    -0.77322577     0.0053138706   0.24611003     0.49798037   
     11000   0.50159736     0.25054788    -0.78060615     0.01621731     0.25054658     0.49680105   
     11100   0.50380776     0.25165198    -0.79206406     0.016697593    0.25165065     0.49931298   
     11200   0.49508873     0.24729682    -0.7944881      0.017038646    0.24729553     0.48951526   
     11300   0.49579071     0.24764746    -0.7974091      0.012734699    0.24764615     0.48980713   
     11400   0.5134453      0.25646593    -0.79978799     0.010942929    0.25646457     0.51240706   
     11500   0.5103962      0.2549429     -0.7999808      0.0057807269   0.25494158     0.50396184   
     11600   0.49270174     0.24610452    -0.80959475     0.017775236    0.24610317     0.49837183   
     11700   0.49092896     0.24521902    -0.81260203     0.0077083219   0.24521774     0.48294675   
     11800   0.49355504     0.24653074    -0.81967398     0.012915295    0.2465294      0.50363787   
     11900   0.5070802      0.25328656    -0.8250579      0.0094216438   0.25328522     0.49964217   
     12000   0.51351935     0.25650292    -0.82782754     0.013879513    0.2565016      0.50424685   
     12100   0.48463499     0.24207518    -0.84280618     0.015158934    0.24207385     0.49159035   
     12200   0.48780115     0.24365667    -0.84691537     0.0097065282   0.24365535     0.49465009   
     12300   0.5080049      0.25374845    -0.84077845     0.010237953    0.25374708     0.50838513   
     12400   0.51490008     0.25719259    -0.85542147     0.0050027684   0.25719123     0.51239906   
     12500   0.50189679     0.25069745    -0.86505707     0.024858358    0.25069609     0.50156561   
     12600   0.48024213     0.23988095    -0.86595471     0.024237302    0.23987966     0.48735135   
     12700   0.48757415     0.24354329    -0.8678087      0.010728113    0.243542       0.48192448   
     12800   0.53406937     0.26676765    -0.87270457     0.012789406    0.26676628     0.50750411   
     12900   0.50724177     0.25336726    -0.87786029     0.019352489    0.25336592     0.50435363   
     13000   0.50578724     0.25264073    -0.88628572     0.0035340357   0.2526394      0.49625282   
     13100   0.50589499     0.25269455    -0.87919014     0.0132393      0.25269314     0.51690393   
     13200   0.49975388     0.24962706    -0.89305426     0.011843605    0.24962573     0.50131456   
     13300   0.49387146     0.2466888     -0.89441906     0.020284156    0.24668747     0.50047024   
     13400   0.48949893     0.24450472    -0.90008654     0.010897445    0.24450339     0.49204987   
     13500   0.47889023     0.23920567    -0.90102523     0.0066411848   0.23920437     0.48962564   
     13600   0.51169759     0.25559295    -0.91279564     0.017482569    0.25559157     0.51228827   
     13700   0.50587911     0.25268662    -0.92187014     0.014131389    0.25268528     0.50429306   
     13800   0.50921356     0.25435217    -0.92218021     0.024851285    0.25435077     0.51762032   
     13900   0.50713137     0.25331212    -0.92296211     0.019038023    0.25331075     0.49992994   
     14000   0.48869071     0.24410101    -0.92501227     0.013277634    0.24409968     0.50058529   
     14100   0.50353184     0.25151415    -0.92451058     0.0078583728   0.25151282     0.49610348   
     14200   0.52515572     0.26231528    -0.93286066     0.017103319    0.26231396     0.50973732   
     14300   0.50635238     0.25292302    -0.93415394     0.01716062     0.25292166     0.50296835   
     14400   0.50767282     0.25358257    -0.93541329     0.01071269     0.25358127     0.4989753    
     14500   0.50521589     0.25235534    -0.93857399     0.01471463     0.252354       0.50848262   
     14600   0.51229141     0.25588956    -0.94140531     0.015708531    0.25588819     0.51175911   
     14700   0.51565354     0.25756894    -0.94551644     0.0080078561   0.25756757     0.51299075   
     14800   0.49533994     0.2474223     -0.94410492     0.017435017    0.24742099     0.49465564   
     14900   0.50027754     0.24988863    -0.95011841     0.012400594    0.24988727     0.5124715    
     15000   0.49992568     0.24971288    -0.95932344     0.011900753    0.24971154     0.50010702   
     15100   0.51604795     0.25776595    -0.96269865     0.017105162    0.25776462     0.50171499   
     15200   0.50159753     0.25054796    -0.96707171     0.022069984    0.25054668     0.48533119   
     15300   0.51042174     0.25495566    -0.97006485     0.0039264037   0.25495433     0.49756603   
     15400   0.50333283     0.25141475    -0.97055235     0.015118769    0.25141344     0.49596353   
     15500   0.50447357     0.25198455    -0.97035706     0.020412905    0.25198323     0.49898184   
     15600   0.49722322     0.248363      -0.98450176     0.017949134    0.24836166     0.49289608   
     15700   0.51257135     0.25602939    -0.98306513     0.011114774    0.25602806     0.49954709   
     15800   0.49407988     0.2467929     -0.99166481     0.01074286     0.24679154     0.50891278   
     15900   0.51762246     0.25855242    -0.99813518     0.0054902258   0.25855109     0.50501519   
     16000   0.48451204     0.24201376    -1.0061553      0.016652125    0.24201246     0.48267847   
     16100   0.49938985     0.24944523    -1.0049446      0.013403761    0.24944389     0.49984518   
     16200   0.50988291     0.25468651    -1.0133524      0.0097873791   0.25468517     0.50387298   
     16300   0.49564719     0.24757577    -1.0135918      0.0094709257   0.24757444     0.49922891   
     16400   0.52501147     0.26224323    -1.022253       0.014481752    0.26224185     0.52431847   
     16500   0.50715766     0.25332525    -1.024093       0.0096273609   0.25332392     0.50640467   
     16600   0.49977827     0.24963924    -1.0365606     -0.00074004705  0.24963789     0.50508443   
     16700   0.49998228     0.24974115    -1.0469426      0.012432374    0.24973982     0.5001537    
     16800   0.51815758     0.25881971    -1.050787       0.0070159029   0.25881835     0.50909044   
     16900   0.50261501     0.2510562     -1.0520912      0.015797184    0.25105488     0.4996134    
     17000   0.49420933     0.24685756    -1.0516112      0.015327648    0.24685621     0.5036693    
     17100   0.52102886     0.26025391    -1.0574119      0.013750077    0.26025256     0.51337287   
     17200   0.49821406     0.24885792    -1.0515643      0.019116709    0.24885657     0.50526742   
     17300   0.51109904     0.25529397    -1.052313       0.0037070226   0.2552926      0.51444623   
     17400   0.50079832     0.25014876    -1.0531276     -0.0028096566   0.25014738     0.5123824    
     17500   0.503701       0.25159865    -1.055012       0.014527107    0.25159731     0.51090845   
     17600   0.49242846     0.24596801    -1.0543631      0.0060291795   0.24596672     0.48959955   
     17700   0.49581251     0.24765835    -1.0671643      0.015869439    0.24765703     0.49380218   
     17800   0.48514403     0.24232944    -1.0661911      0.0085355319   0.24232815     0.48506765   
     17900   0.50776077     0.2536265     -1.0730284      0.01718061     0.25362512     0.51127524   
     18000   0.5191206      0.25930074    -1.0755966      0.0023469507   0.25929935     0.5152217    
     18100   0.49139859     0.2454536     -1.0840119      0.01541908     0.24545228     0.49090647   
     18200   0.49804232     0.24877214    -1.0871942      0.017601933    0.24877074     0.50764589   
     18300   0.51108943     0.25528917    -1.0900762      0.011061403    0.2552878      0.50870523   
     18400   0.49292354     0.24621531    -1.088298       0.018305477    0.24621397     0.50405255   
     18500   0.497954       0.24872802    -1.0990643      0.0062003843   0.24872673     0.48540928   
     18600   0.50954796     0.25451921    -1.1040014      0.0124506      0.25451785     0.50210868   
     18700   0.49603565     0.24776981    -1.104943       0.008783714    0.24776847     0.5035819    
     18800   0.50215771     0.25082778    -1.1098752      0.020031722    0.25082643     0.49909683   
     18900   0.52006113     0.25977054    -1.1122792      0.025475515    0.25976916     0.51670022   
     19000   0.48428565     0.24190068    -1.115255       0.0084574577   0.24189936     0.4924819    
     19100   0.51512773     0.2573063     -1.1212259      0.021218103    0.25730491     0.51384779   
     19200   0.50913593     0.2543134     -1.118026       0.016721448    0.25431207     0.49610935   
     19300   0.51094313     0.25521609    -1.111902       0.015907574    0.25521475     0.49831776   
     19400   0.50140828     0.25045343    -1.1151557      0.017035561    0.25045207     0.50878701   
     19500   0.49566801     0.24758617    -1.1215419      0.019241868    0.24758486     0.49554194   
     19600   0.49482327     0.24716422    -1.1281131      0.010947924    0.24716287     0.50120343   
     19700   0.50484982     0.25217249    -1.1333561      0.01247228     0.2521711      0.51081694   
     19800   0.49198857     0.24574829    -1.1340651      0.01018408     0.24574693     0.50442543   
     19900   0.49347498     0.24649075    -1.1417747      0.013908818    0.24648945     0.48491841   
     20000   0.49662155     0.24806247    -1.1502675      0.010097175    0.24806113     0.49990542   
     20100   0.48845323     0.24398239    -1.1489287      0.0049575366   0.24398104     0.49565495   
     20200   0.51862904     0.25905521    -1.1625866      0.018430284    0.25905384     0.51872881   
     20300   0.47585831     0.23769123    -1.1705323      0.005347198    0.23768993     0.48080049   
     20400   0.50567285     0.25258359    -1.1653301      0.01403144     0.25258224     0.50042474   
     20500   0.51761435     0.25854837    -1.1765168      0.021957125    0.25854699     0.51605287   
     20600   0.46837909     0.23395535    -1.1867689      0.0067211004   0.23395407     0.4740766    
     20700   0.49242472     0.24596615    -1.1803181      0.0062221505   0.24596479     0.51013909   
     20800   0.51673533     0.2581093     -1.1854464      0.0022130004   0.25810796     0.50591687   
     20900   0.53168172     0.26557502    -1.1842927      0.004620174    0.26557366     0.51304913   
     21000   0.50421383     0.25185481    -1.1826612      0.015514807    0.25185347     0.50099805   
     21100   0.50420044     0.25184812    -1.1984765      0.0069267279   0.25184672     0.51260087   
     21200   0.51492664     0.25720586    -1.2057503      0.018727143    0.25720449     0.50842913   
     21300   0.48300452     0.24126076    -1.2080029      0.022526912    0.24125942     0.49736733   
     21400   0.50500479     0.25224989    -1.2128889      0.011971185    0.25224853     0.50714056   
     21500   0.51975088     0.25961557    -1.2133692      0.0059365918   0.25961419     0.51909085   
     21600   0.50132203     0.25041036    -1.2122322      0.014141043    0.25040901     0.50317769   
     21700   0.50656186     0.25302765    -1.2144669      0.0046345912   0.2530263      0.50303902   
     21800   0.49721141     0.2483571     -1.2197834      0.016681388    0.2483558      0.4956058    
     21900   0.51097689     0.25523296    -1.2208956     -0.0099040202   0.25523158     0.51146278   
     22000   0.5039752      0.25173561    -1.2215036      0.0043434737   0.25173422     0.5163317    
     22100   0.51905436     0.25926765    -1.2249455      0.019524009    0.25926633     0.49737076   
     22200   0.4990653      0.24928312    -1.2355505      0.012861749    0.24928179     0.4994647    
     22300   0.52345493     0.26146574    -1.2359481      0.0072155841   0.26146441     0.5067559    
     22400   0.51588471     0.25768441    -1.2437458      0.0084317802   0.25768303     0.51271566   
     22500   0.51251458     0.25600103    -1.252292       0.011188147    0.25599964     0.51160738   
     22600   0.50686505     0.25317909    -1.251194       0.016821683    0.25317775     0.50490845   
     22700   0.52215386     0.26081585    -1.2573015      0.00082826679  0.2608145      0.50756087   
     22800   0.49800362     0.24875281    -1.2658203      0.016242206    0.24875146     0.50588017   
     22900   0.51823262     0.2588572     -1.2655501      0.0063049306   0.25885586     0.5073999    
     23000   0.5266678      0.26307056    -1.2678611      0.0073327532   0.26306918     0.521681     
     23100   0.48703799     0.24327547    -1.2720112      0.0094707691   0.24327419     0.48594684   
     23200   0.50629583     0.25289477    -1.2764306      0.010397945    0.25289345     0.49785996   
     23300   0.48830472     0.24390821    -1.2805129      0.011645616    0.24390691     0.48918843   
     23400   0.4969513      0.24822717    -1.2777671      0.00013396472  0.24822584     0.50220709   
     23500   0.49589109     0.2476976     -1.2762297      0.0095785925   0.24769628     0.49551191   
     23600   0.51632953     0.2579066     -1.2826681      0.0093500648   0.25790524     0.51355726   
     23700   0.51523941     0.25736209    -1.2873638      0.010828596    0.25736072     0.50576716   
     23800   0.49588581     0.24769496    -1.2841342      0.0056811533   0.24769361     0.50081474   
     23900   0.51380178     0.25664399    -1.2804107      0.019573026    0.25664263     0.51545937   
     24000   0.48934697     0.24442881    -1.282625      -0.0061474649   0.24442751     0.48927811   
     24100   0.50372516     0.25161072    -1.2897941      0.017282058    0.25160939     0.50522946   
     24200   0.49034995     0.2449298     -1.2940037      0.017256421    0.24492849     0.49209859   
     24300   0.50602054     0.25275726    -1.3017055      0.014978552    0.25275595     0.49795613   
     24400   0.52888626     0.26417869    -1.3091621      0.026473868    0.26417736     0.50960608   
     24500   0.51046633     0.25497793    -1.3095852      0.0086872872   0.25497655     0.50977702   
     24600   0.51657674     0.25803008    -1.3180583      0.013294202    0.25802869     0.51952585   
     24700   0.49719103     0.24834692    -1.3170066      0.013104346    0.24834559     0.50032864   
     24800   0.49836414     0.24893289    -1.322057       0.012968749    0.24893156     0.49819461   
     24900   0.50339151     0.25144406    -1.3300903      0.006909048    0.25144271     0.50413391   
     25000   0.48175718     0.24063771    -1.3259219      0.017357939    0.2406364      0.49019185   
     25100   0.50095567     0.25022736    -1.3296834      0.013119705    0.25022602     0.50634001   
     25200   0.521263       0.26037087    -1.3311161      0.012210968    0.26036949     0.51018176   
     25300   0.53178742     0.26562781    -1.326244       0.008093084    0.26562647     0.51192882   
     25400   0.48325312     0.24138494    -1.3349378     -0.0031502498   0.24138357     0.4997983    
     25500   0.5255048      0.26248965    -1.3375962      0.0057936278   0.26248831     0.51268212   
     25600   0.4775608      0.23854162    -1.339646      -0.0050983876   0.23854032     0.48938533   
     25700   0.53978194     0.26962108    -1.3444059      0.0067792631   0.26961969     0.52368241   
     25800   0.51061541     0.2550524     -1.3395505      0.00078297383  0.25505101     0.51446297   
     25900   0.51233182     0.25590975    -1.348289       0.0095211956   0.25590838     0.50464503   
     26000   0.50855385     0.25402265    -1.344944       0.014040311    0.2540213      0.50655555   
     26100   0.50490544     0.25220027    -1.3431284      0.025614854    0.25219896     0.49989477   
     26200   0.50644382     0.25296869    -1.3470414      0.021629641    0.25296734     0.50586222   
     26300   0.47019258     0.23486119    -1.3507749      0.013746633    0.2348599      0.48267392   
     26400   0.50434874     0.2519222     -1.3500445      0.012392766    0.25192085     0.50288062   
     26500   0.48947666     0.24449359    -1.3526944      0.01113113     0.24449226     0.50085318   
     26600   0.50039751     0.24994856    -1.3481265      0.0070643688   0.24994722     0.49888846   
     26700   0.51384452     0.25666534    -1.3667349      0.018876146    0.256664       0.50036093   
     26800   0.53257587     0.26602165    -1.3615043      0.00949123     0.26602029     0.51500576   
     26900   0.50507369     0.25228431    -1.3650929      0.026578103    0.25228297     0.50449827   
     27000   0.49476077     0.24713301    -1.3699353      0.016820375    0.24713166     0.50834605   
     27100   0.4974571      0.24847982    -1.3781051      0.00029180382  0.2484785      0.49627778   
     27200   0.50916037     0.25432561    -1.3826435      0.018451721    0.25432426     0.50860016   
     27300   0.47965941     0.23958988    -1.3879166      0.012897101    0.23958855     0.50026854   
     27400   0.51018221     0.25483601    -1.3818368      0.016088215    0.25483469     0.49968137   
     27500   0.48050182     0.24001066    -1.382932       0.01064781     0.24000931     0.49883086   
     27600   0.49533397     0.24741932    -1.3852661      0.010613783    0.24741799     0.49534068   
     27700   0.50304664     0.2512718     -1.3883789      0.007666026    0.25127044     0.50660749   
     27800   0.47708825     0.23830558    -1.3905356      0.011135899    0.2383043      0.4858974    
     27900   0.52244328     0.26096042    -1.394799       0.0070996831   0.26095908     0.50966822   
     28000   0.51497587     0.25723045    -1.3982121      0.0073438514   0.25722908     0.51138779   
     28100   0.4975204      0.24851144    -1.3999867      0.019147562    0.24851013     0.49079479   
     28200   0.5034098      0.25145319    -1.4001657      0.015980037    0.25145186     0.50276357   
     28300   0.5027325      0.25111489    -1.4055581      0.0089481782   0.25111354     0.499893     
     28400   0.51639976     0.25794168    -1.4120887      0.0062787247   0.25794035     0.50538253   
     28500   0.50199596     0.25074698    -1.416209      -0.0040635462   0.25074564     0.50045443   
     28600   0.51402768     0.25675683    -1.4182687      0.010353206    0.25675549     0.50107089   
     28700   0.49421436     0.24686007    -1.4196795      0.012891591    0.24685875     0.49288634   
     28800   0.50933109     0.25441088    -1.4253305      0.014062234    0.25440951     0.50877339   
     28900   0.51083767     0.25516341    -1.4314444      0.024696124    0.2551621      0.4974343    
     29000   0.50078977     0.25014449    -1.4266884      0.015002468    0.25014315     0.50260621   
     29100   0.51027715     0.25488343    -1.4307623      0.011688431    0.25488211     0.49912094   
     29200   0.51537133     0.25742798    -1.4293504      0.01739656     0.25742662     0.50730052   
     29300   0.5004502      0.24997487    -1.4339202     -0.006293047    0.2499735      0.50564903   
     29400   0.47980896     0.23966457    -1.4427773      0.0168567      0.23966323     0.49710013   
     29500   0.50475267     0.25212396    -1.4415813      0.010874038    0.25212262     0.50047975   
     29600   0.52867776     0.26407454    -1.4483189      0.011535786    0.2640732      0.51467522   
     29700   0.51394498     0.25671552    -1.4571848      0.00053860412  0.25671416     0.50780206   
     29800   0.53618609     0.26782495    -1.4633603     -9.7903008e-05  0.2678235      0.53099976   
     29900   0.50987375     0.25468194    -1.4798542      0.016099701    0.25468056     0.51276001   
     30000   0.52719421     0.26333351    -1.47593        0.013781253    0.26333218     0.50613263   
     30100   0.50173795     0.2506181     -1.4898562      0.0041812715   0.25061677     0.49576675   
     30200   0.52274841     0.26111283    -1.4884607      0.010052317    0.26111148     0.51146412   
     30300   0.49347524     0.24649088    -1.4972763      0.00087026969  0.24648952     0.49924583   
     30400   0.49875985     0.24913055    -1.4952108     -0.0046946049   0.2491292      0.5068842    
     30500   0.51593026     0.25770717    -1.4926802      0.0068975849   0.25770581     0.51032632   
     30600   0.51961348     0.25954693    -1.4998773      0.010178179    0.2595456      0.5062638    
     30700   0.50133957     0.25041911    -1.5024711      0.0089161875   0.25041771     0.51094419   
     30800   0.49920495     0.24935287    -1.5000716      0.013145205    0.24935152     0.50744348   
     30900   0.50542371     0.25245915    -1.5064268      0.013162206    0.2524578      0.50061769   
     31000   0.51422064     0.25685321    -1.5070622      0.0040536768   0.25685183     0.51320073   
     31100   0.49759869     0.24855055    -1.504646       0.011325012    0.24854916     0.5129152    
     31200   0.47693795     0.23823051    -1.5171438      0.0143708      0.23822921     0.48491792   
     31300   0.48964142     0.24457589    -1.5146957      0.01520115     0.24457455     0.49359209   
     31400   0.50462997     0.25206267    -1.5213238      0.01015394     0.25206132     0.50628505   
     31500   0.50844017     0.25396586    -1.5239138      0.010693327    0.25396454     0.50210676   
     31600   0.49858746     0.24904444    -1.5221539      0.015618505    0.24904309     0.50542454   
     31700   0.51723042     0.2583566     -1.5252481      0.010077191    0.25835525     0.50403736   
     31800   0.50947855     0.25448453    -1.5264309     -0.008844003    0.25448316     0.51411681   
     31900   0.49869947     0.24910038    -1.5234136      0.012906803    0.24909901     0.50441575   
     32000   0.48524566     0.24238021    -1.5217592      0.014712655    0.24237888     0.49238979   
     32100   0.49983595     0.24966806    -1.5340322      0.0025110561   0.24966671     0.5002574    
     32200   0.5105916      0.25504051    -1.5327632      0.0052190475   0.25503916     0.50550582   
     32300   0.50758326     0.25353784    -1.5346256      0.016766156    0.25353646     0.50751503   
     32400   0.50031736     0.24990852    -1.5404835      0.010089705    0.24990712     0.50997697   
     32500   0.49738235     0.24844248    -1.5380744      0.020177625    0.24844112     0.50160975   
     32600   0.48793941     0.24372574    -1.5399195      0.014866747    0.24372441     0.49407359   
     32700   0.49449386     0.24699968    -1.5466793     -0.0035019797   0.24699833     0.50105889   
     32800   0.51132183     0.25540525    -1.5463455      0.0002750903   0.25540392     0.49835418   
     32900   0.52333361     0.26140514    -1.5489114      0.0012632618   0.26140377     0.51386799   
     33000   0.48944293     0.24447674    -1.5471616      0.0059533876   0.24447544     0.49067134   
     33100   0.5104121      0.25495085    -1.5482819      0.010139218    0.25494952     0.49791207   
     33200   0.47557456     0.23754949    -1.5540748      0.0063817439   0.23754813     0.49688582   
     33300   0.48728721     0.24339996    -1.547958       0.010740203    0.24339867     0.48609527   
     33400   0.50108041     0.25028967    -1.551622       0.010030726    0.25028831     0.50395999   
     33500   0.49809921     0.24880055    -1.552107       0.0032297741   0.24879926     0.49366718   
     33600   0.51362357     0.25655498    -1.5564139      0.0052017579   0.2565536      0.5151113    
     33700   0.49158001     0.24554422    -1.5552444      0.011581598    0.2455429      0.50299811   
     33800   0.53091504     0.26519206    -1.5528425      0.0055961222   0.26519067     0.51700662   
     33900   0.51149087     0.25548969    -1.5533944      0.017994137    0.25548834     0.50529061   
     34000   0.50450216     0.25199883    -1.5554437      0.0042281761   0.25199749     0.50339825   
     34100   0.50298741     0.25124221    -1.5551935      0.010605386    0.25124087     0.50023543   
     34200   0.49476153     0.24713338    -1.559003       0.0076685224   0.24713209     0.49256355   
     34300   0.4890029      0.24425695    -1.5558226      0.0048091928   0.24425563     0.49215126   
     34400   0.4867226      0.24311794    -1.5631755      0.010044871    0.24311656     0.50186759   
     34500   0.5130891      0.256288      -1.5598316      0.0049781496   0.25628663     0.50926218   
     34600   0.50100032     0.25024966    -1.56619       -0.0014922427   0.25024832     0.49791963   
     34700   0.49575007     0.24762716    -1.5601435      0.0040751937   0.24762582     0.49931615   
     34800   0.52070064     0.26008997    -1.5671508      0.010594286    0.26008855     0.52703568   
     34900   0.49733939     0.24842103    -1.5633612      0.001929124    0.24841965     0.50597338   
     35000   0.50283774     0.25116745    -1.5661821      0.0039972515   0.25116613     0.50490015   
     35100   0.52310369     0.2612903     -1.5684035      0.014767439    0.26128891     0.51326703   
     35200   0.50895876     0.2542249     -1.5747241      0.017249534    0.25422356     0.50320826   
     35300   0.51424921     0.25686748    -1.5704172      0.0062613723   0.25686613     0.5073612    
     35400   0.48492967     0.24222237    -1.5755981      0.021763623    0.24222104     0.49116252   
     35500   0.50044616     0.24997285    -1.5757957      0.011249961    0.24997152     0.49582736   
     35600   0.47687308     0.2381981     -1.5783328      0.0052168634   0.23819681     0.48471764   
     35700   0.50626695     0.25288034    -1.5834552      0.021619509    0.25287903     0.50289643   
     35800   0.4859176      0.24271584    -1.5821792     -3.687298e-05   0.2427145      0.49691345   
     35900   0.49856115     0.2490313     -1.5765397     -0.0064515843   0.24902993     0.5009272    
     36000   0.5235648      0.26152062    -1.5754027      0.012313394    0.2615192      0.52626008   
     36100   0.49374352     0.24662489    -1.5819943      0.024207834    0.24662357     0.49288789   
     36200   0.50884571     0.25416843    -1.5851443      0.022133782    0.25416712     0.49857211   
     36300   0.49809125     0.24879658    -1.5811319      0.014101681    0.24879527     0.4938226    
     36400   0.51588184     0.25768298    -1.5793426      0.027200255    0.2576816      0.50856892   
     36500   0.49932786     0.24941426    -1.5796787      0.024609843    0.24941293     0.4969788    
     36600   0.5129258      0.25620643    -1.5850451      0.022309756    0.25620511     0.50319714   
     36700   0.51053343     0.25501145    -1.5897247      0.011066971    0.2550101      0.50573574   
     36800   0.51543903     0.2574618     -1.5922531      0.0042004469   0.25746042     0.51879593   
     36900   0.49025629     0.24488302    -1.5951273     -0.0030983903   0.24488164     0.50771213   
     37000   0.51253119     0.25600933    -1.5980294      0.0030144578   0.25600799     0.50688262   
     37100   0.50560917     0.25255178    -1.6036226      0.016798234    0.25255044     0.50303663   
     37200   0.50919016     0.25434048    -1.6037673      0.0098031847   0.25433912     0.50343939   
     37300   0.4870225      0.24326774    -1.6160786      0.011656835    0.24326645     0.48522385   
     37400   0.51438213     0.25693387    -1.6237825      0.0051406991   0.25693251     0.50838057   
     37500   0.49834758     0.24892462    -1.6206128     -0.0053549452   0.24892329     0.49082332   
     37600   0.47714352     0.23833319    -1.6203664      0.017036059    0.23833187     0.48964366   
     37700   0.47975762     0.23963893    -1.6304145      0.023071888    0.23963762     0.49607315   
     37800   0.47023504     0.2348824     -1.629002       0.008583972    0.23488108     0.48895564   
     37900   0.51694113     0.25821209    -1.6415151      0.0077855577   0.25821073     0.51069656   
     38000   0.49604701     0.24777548    -1.6398199      0.0098521756   0.24777413     0.50913956   
     38100   0.49894531     0.24922318    -1.6514507      0.0099851434   0.24922186     0.49942289   
     38200   0.50113071     0.25031479    -1.6557409      0.0036707589   0.25031346     0.50666391   
     38300   0.52943154     0.26445106    -1.6534365     -0.0010061095   0.26444966     0.5257798    
     38400   0.52022078     0.25985028    -1.6523666      0.01282679     0.25984897     0.50335275   
     38500   0.51339955     0.25644308    -1.6539466      0.0058305549   0.25644174     0.50167647   
     38600   0.49464253     0.24707394    -1.659766       0.015925207    0.24707262     0.49239489   
     38700   0.48880615     0.24415867    -1.6570297     -0.0014831031   0.24415733     0.50410847   
     38800   0.49925274     0.24937675    -1.6631067      0.0068363524   0.24937543     0.4976793    
     38900   0.51427718     0.25688145    -1.6694693      0.0058299021   0.25688007     0.51821857   
     39000   0.50304723     0.25127209    -1.6643145      0.007020029    0.25127072     0.51070542   
     39100   0.50149901     0.25049876    -1.6652177     -0.0014462289   0.25049741     0.50278132   
     39200   0.50357533     0.25153588    -1.6758675      0.017907603    0.25153451     0.50262996   
     39300   0.49496399     0.24723452    -1.6728228      0.0060284124   0.24723321     0.49253343   
     39400   0.47837845     0.23895004    -1.675987       0.0076296717   0.23894872     0.48578776   
     39500   0.49857185     0.24903664    -1.6798907      0.014613215    0.24903527     0.50841386   
     39600   0.50111627     0.25030757    -1.6764157      0.0073119855   0.25030622     0.50797516   
     39700   0.52037491     0.25992727    -1.6789279      0.0073001201   0.25992589     0.52020691   
     39800   0.51383879     0.25666248    -1.6855169      0.0043346923   0.25666115     0.50430235   
     39900   0.49968019     0.24959025    -1.6898418     -0.0037605279   0.24958889     0.50633629   
     40000   0.50507087     0.2522829     -1.6916952      0.014687685    0.25228156     0.50486971   
     40100   0.49584302     0.24767359    -1.6916491     -0.00093560584  0.24767231     0.48721919   
     40200   0.49648139     0.24799245    -1.6995615      0.0066122487   0.24799112     0.49884211   
     40300   0.51143067     0.25545962    -1.695734      -0.0039284433   0.25545829     0.50328501   
     40400   0.50022099     0.24986038    -1.6932096      0.0075293485   0.24985902     0.50800099   
     40500   0.49172401     0.24561614    -1.6987942      0.0083498329   0.2456148      0.50086564   
     40600   0.51741529     0.25844894    -1.706301       0.0069036533   0.2584476      0.50412182   
     40700   0.50595845     0.25272624    -1.7110916      0.001568356    0.2527249      0.50554723   
     40800   0.51830768     0.25889468    -1.7123376     -0.00196385     0.2588933      0.52025515   
     40900   0.49519066     0.24734773    -1.7208689     -0.0022343213   0.2473464      0.50225736   
     41000   0.50677694     0.25313508    -1.7213152      0.0096102731   0.25313378     0.49284991   
     41100   0.51059262     0.25504101    -1.7183177      0.0017880437   0.25503966     0.50954987   
     41200   0.50073658     0.25011792    -1.7228358     -0.0071110826   0.25011661     0.49377618   
     41300   0.51706711     0.25827502    -1.7253948      0.0052309764   0.25827368     0.50651916   
     41400   0.51367776     0.25658204    -1.7323626      0.0036830897   0.25658066     0.51535063   
     41500   0.51633114     0.2579074     -1.734397      -0.00066984396  0.25790603     0.50256297   
     41600   0.49345765     0.2464821     -1.7426987      0.013983196    0.24648083     0.47898753   
     41700   0.49228194     0.24589483    -1.7451403      0.0249091      0.24589358     0.48578715   
     41800   0.52025488     0.25986731    -1.7388929      0.011844036    0.25986596     0.50802902   
     41900   0.51451118     0.25699833    -1.7481734      0.027367878    0.25699695     0.51373981   
     42000   0.50744171     0.25346713    -1.7483181      0.0034854049   0.25346576     0.5122001    
     42100   0.48984678     0.24467847    -1.7508845      0.0093068926   0.24467717     0.49499756   
     42200   0.49853193     0.2490167     -1.7505058      0.010781608    0.24901536     0.50179901   
     42300   0.52802012     0.26374605    -1.7566427     -0.0027541609   0.26374464     0.52382994   
     42400   0.50167435     0.25058634    -1.7607512      0.013076482    0.25058498     0.50227708   
     42500   0.50099379     0.2502464     -1.7602835      0.0067395744   0.25024504     0.513897     
     42600   0.49924764     0.2493742     -1.7563304      0.0023962062   0.24937285     0.50595489   
     42700   0.50224572     0.25087174    -1.7535663      0.010255953    0.25087039     0.50232782   
     42800   0.49929208     0.2493964     -1.7595493      0.02031867     0.24939505     0.50705252   
     42900   0.50245213     0.25097484    -1.7589111      0.0021412102   0.25097349     0.50565111   
     43000   0.52943211     0.26445134    -1.7636315      0.012299811    0.26444995     0.51573644   
     43100   0.48301286     0.24126492    -1.7595095      0.018079297    0.24126361     0.4860818    
     43200   0.50313612     0.25131649    -1.7756075      0.016428234    0.25131517     0.49266279   
     43300   0.49660224     0.24805282    -1.7731242      0.021332933    0.2480515      0.49536657   
     43400   0.51625023     0.25786699    -1.7812769      0.0014744377   0.25786565     0.50763259   
     43500   0.51986974     0.25967494    -1.7759102      0.0048290985   0.2596736      0.50719299   
     43600   0.50145205     0.2504753     -1.7747116      0.0089877988   0.25047396     0.49831493   
     43700   0.50378589     0.25164105    -1.7759302      0.023404307    0.25163976     0.49103243   
     43800   0.50374326     0.25161976    -1.7760309      0.023033801    0.25161843     0.50396937   
     43900   0.49833084     0.24891626    -1.7777966      0.026267972    0.24891491     0.50585562   
     44000   0.50535143     0.25242304    -1.7802711      0.017158177    0.25242173     0.49649641   
     44100   0.5138106      0.2566484     -1.7798646      0.0063978228   0.25664703     0.50661271   
     44200   0.49822574     0.24886376    -1.7840859      0.018003622    0.2488624      0.49495059   
     44300   0.51688681     0.25818496    -1.7894726      0.015852355    0.25818362     0.50801111   
     44400   0.4753209      0.23742279    -1.7864467      0.013054789    0.23742142     0.49965958   
     44500   0.52738        0.26342631    -1.7859248     -5.568027e-06   0.263425       0.49979855   
     44600   0.51135393     0.25542129    -1.7869237      0.0052613974   0.25541992     0.50798096   
     44700   0.49192783     0.24571795    -1.7974732      0.0033526397   0.24571658     0.5074311    
     44800   0.50216564     0.25083174    -1.7940441      0.014153773    0.25083042     0.49627247   
     44900   0.49936388     0.24943226    -1.7970933      0.010044614    0.2494309      0.50398786   
     45000   0.50497159     0.25223331    -1.7950376     -0.0041837438   0.25223192     0.51468099   
     45100   0.52375423     0.26161524    -1.7930955      0.005317394    0.26161386     0.50985626   
     45200   0.49714622     0.24832454    -1.7942963      0.011485297    0.24832318     0.50098713   
     45300   0.4848582      0.24218667    -1.7946056     -2.9374884e-05  0.24218536     0.49200471   
     45400   0.51418432     0.25683507    -1.7936232      0.0096021468   0.25683369     0.51469484   
     45500   0.48799555     0.24375378    -1.793878       0.010789167    0.24375244     0.50190901   
     45600   0.50167721     0.25058777    -1.7898726      0.004401626    0.25058644     0.50136007   
     45700   0.49649236     0.24799794    -1.7942571     -0.0040217746   0.24799655     0.50812056   
     45800   0.49858076     0.24904109    -1.7941489      0.010114792    0.24903978     0.49579727   
     45900   0.52301095     0.26124397    -1.7959719      0.012677659    0.26124262     0.51393517   
     46000   0.51123578     0.25536227    -1.8055172      0.0028162599   0.25536088     0.51225927   
     46100   0.50477893     0.25213707    -1.8022125      0.00076027738  0.25213572     0.50479537   
     46200   0.50518624     0.25234053    -1.8063641     -0.0017384208   0.25233918     0.49998957   
     46300   0.50198167     0.25073984    -1.8019826      0.0024519106   0.25073846     0.50526394   
     46400   0.50241819     0.25095789    -1.8079941      0.023290605    0.25095658     0.49811565   
     46500   0.52357626     0.26152634    -1.8089553      0.0061505799   0.26152498     0.51155648   
     46600   0.52615446     0.26281415    -1.8149073      0.024682421    0.26281277     0.51281395   
     46700   0.48652202     0.24301775    -1.8160413     -0.0027910851   0.24301637     0.50485997   
     46800   0.50136327     0.25043095    -1.8195203      0.024579242    0.25042963     0.4983966    
     46900   0.50637265     0.25293314    -1.8178874      0.022071627    0.2529318      0.50417421   
     47000   0.51698526     0.25823414    -1.8271833     -0.017514206    0.25823278     0.50573721   
     47100   0.51723582     0.25835929    -1.8329634      0.0082488109   0.25835799     0.50029411   
     47200   0.50551514     0.25250481    -1.8296127      0.0019423419   0.25250344     0.51555068   
     47300   0.49334954     0.24642809    -1.8290654      0.0053686937   0.24642676     0.50016295   
     47400   0.48962471     0.24456754    -1.82766        0.013527537    0.24456624     0.48801558   
     47500   0.51541599     0.25745029    -1.8255287      0.009245158    0.25744896     0.50226202   
     47600   0.49303809     0.24627253    -1.831453       0.0005398132   0.2462712      0.49202909   
     47700   0.51202924     0.25575861    -1.8347531      0.00061906997  0.25575726     0.51286207   
     47800   0.50733678     0.25341472    -1.8428305      0.014320934    0.25341337     0.50942728   
     47900   0.52990783     0.26468896    -1.8438467      0.0032823569   0.26468755     0.52258476   
     48000   0.48745888     0.24348571    -1.8442168      0.020598546    0.24348434     0.50207584   
     48100   0.49500967     0.24725733    -1.8474637      0.0060439474   0.24725595     0.50214613   
     48200   0.49944741     0.24947398    -1.8477333      0.011992777    0.2494726      0.50566265   
     48300   0.50091189     0.25020549    -1.8584675      0.0033074864   0.25020416     0.49707848   
     48400   0.5001577      0.24982877    -1.8566535      0.0088476617   0.24982742     0.50676398   
     48500   0.53836635     0.26891399    -1.8563419     -0.0076189364   0.26891265     0.5189699    
     48600   0.51688875     0.25818593    -1.8571748      0.0060241371   0.25818457     0.51360884   
     48700   0.5063315      0.25291258    -1.8639008      0.025872986    0.25291125     0.50704533   
     48800   0.52277513     0.26112618    -1.8737217      0.0089175318   0.26112486     0.50675522   
     48900   0.48262554     0.24107146    -1.8782609     -0.0027380641   0.24107015     0.48835448   
     49000   0.50106261     0.25028078    -1.8806815      0.02001018     0.25027943     0.5063653    
     49100   0.50539563     0.25244512    -1.8765496      0.0031038336   0.2524438      0.49898919   
     49200   0.53035332     0.26491148    -1.875007      -0.00022086299  0.26491013     0.50567999   
     49300   0.52000505     0.25974252    -1.8908338      0.0058775359   0.25974113     0.51918626   
     49400   0.50397647     0.25173625    -1.895368       0.014723804    0.25173486     0.51937539   
     49500   0.49868801     0.24909466    -1.8981245      0.0079067076   0.24909333     0.4949763    
     49600   0.51107307     0.255281      -1.8986143      0.016254815    0.25527967     0.50730644   
     49700   0.5148357      0.25716043    -1.8981841      0.0080947517   0.25715911     0.50129033   
     49800   0.5133998      0.2564432     -1.9031666     -0.007913128    0.25644184     0.50986267   
     49900   0.53550573     0.26748511    -1.9090455      0.02487424     0.26748375     0.51647116   
     50000   0.49935075     0.2494257     -1.8980161      0.0084146156   0.24942432     0.51002791   
     50100   0.50318963     0.25134322    -1.8999222      0.020864707    0.25134188     0.49994505   
     50200   0.47908532     0.23930312    -1.9087518      0.012792924    0.2393018      0.48888093   
     50300   0.51685618     0.25816966    -1.9074413      0.0043968056   0.25816831     0.51005085   
     50400   0.51012208     0.25480598    -1.9083293      0.010816297    0.25480466     0.49876604   
     50500   0.51912717     0.25930402    -1.9116386      0.0011318444   0.25930263     0.51425697   
     50600   0.51837388     0.25892775    -1.9081286      0.010579805    0.25892637     0.5187404    
     50700   0.49806851     0.24878522    -1.9116441      0.012066967    0.24878385     0.50616866   
     50800   0.51732504     0.25840386    -1.9085286      0.0017028188   0.25840249     0.51532122   
     50900   0.49288154     0.24619433    -1.9181051      0.0070113356   0.24619301     0.49817393   
     51000   0.49869885     0.24910008    -1.9105005      0.010783076    0.2490987      0.50705777   
     51100   0.52378307     0.26162965    -1.9136826      0.010484109    0.26162829     0.51337663   
     51200   0.50522399     0.25235938    -1.91975       -0.0072003841   0.25235806     0.50180315   
     51300   0.49434199     0.24692382    -1.9162113      0.0065839627   0.24692249     0.49961913   
     51400   0.50979052     0.25464037    -1.9218311      0.024877711    0.25463906     0.49385038   
     51500   0.51529843     0.25739157    -1.9190783      0.0089125829   0.25739016     0.51279568   
     51600   0.51069675     0.25509303    -1.9180251     -0.0058051894   0.25509167     0.50806019   
     51700   0.51004849     0.25476922    -1.9276538      0.0043677284   0.25476789     0.50210118   
     51800   0.50502724     0.25226111    -1.9257984      0.016873446    0.2522598      0.49674978   
     51900   0.5040184      0.25175719    -1.9231163      0.00476086     0.25175584     0.50672144   
     52000   0.49128184     0.24539528    -1.9295899      0.005591528    0.24539393     0.50697702   
     52100   0.5003077      0.24990369    -1.9342101     -0.0010289296   0.24990237     0.49947061   
     52200   0.50924929     0.25437002    -1.9341458      0.0077026201   0.25436862     0.51062236   
     52300   0.48185125     0.2406847     -1.9356512     -0.0066205689   0.24068341     0.4843061    
     52400   0.52572016     0.26259722    -1.9399765     -0.00094574906  0.2625958      0.51892768   
     52500   0.48827095     0.24389134    -1.9429821     -0.0018109921   0.24389001     0.49994891   
     52600   0.5205016      0.25999055    -1.9475395      0.0060745121   0.25998916     0.51673917   
     52700   0.48864471     0.24407803    -1.9480896     -0.005873064    0.24407669     0.493008     
     52800   0.50382494     0.25166056    -1.9431753      0.010800041    0.25165917     0.51374591   
     52900   0.51125155     0.25537015    -1.9421884      0.0032426736   0.2553688      0.502244     
     53000   0.50152071     0.25050959    -1.9489617      0.019945221    0.25050824     0.5058381    
     53100   0.51443656     0.25696106    -1.947918      -0.0024598923   0.25695969     0.51457287   
     53200   0.5028892      0.25119315    -1.9458128      0.015313889    0.25119182     0.50576409   
     53300   0.51535073     0.25741769    -1.9567336      0.00096986944  0.25741635     0.50206957   
     53400   0.49017647     0.24484315    -1.9515571      0.0074595686   0.24484179     0.49964842   
     53500   0.50600107     0.25274754    -1.9565989      0.01374666     0.25274619     0.50271373   
     53600   0.4911892      0.245349      -1.9514325      0.0094126616   0.24534768     0.5012613    
     53700   0.5347493      0.26710727    -1.9567836      0.0099844146   0.26710593     0.51035215   
     53800   0.49772241     0.24861234    -1.9593106      0.0096511546   0.24861102     0.49871272   
     53900   0.50349012     0.25149332    -1.9643988      0.021669018    0.251492       0.50284039   
     54000   0.51492832     0.2572067     -1.9581957      0.0021343276   0.25720537     0.50074633   
     54100   0.49948362     0.24949207    -1.9648985      0.0056310226   0.24949072     0.50778241   
     54200   0.51565755     0.25757095    -1.9708997      0.011773021    0.25756962     0.50606319   
     54300   0.51116342     0.25532613    -1.9657151      0.016168105    0.25532478     0.5160061    
     54400   0.50028879     0.24989425    -1.9716884      0.0087565396   0.24989296     0.49714091   
     54500   0.51678032     0.25813177    -1.9731091      0.011387246    0.2581304      0.51044808   
     54600   0.52543879     0.26245667    -1.9752143      0.016780073    0.26245533     0.51218729   
     54700   0.50052638     0.25001293    -1.9743259      0.017956486    0.25001159     0.50370073   
     54800   0.48579769     0.24265595    -1.9892279      0.009315134    0.24265464     0.48553684   
     54900   0.48176867     0.24064345    -1.9949223      0.00072196825  0.24064209     0.49715315   
     55000   0.49854066     0.24902106    -2.005221       0.0041127413   0.24901969     0.50615663   
     55100   0.50166386     0.2505811     -2.0070863      0.015814379    0.2505797      0.51789237   
     55200   0.51725104     0.25836689    -2.0066684      0.013853091    0.25836555     0.50619153   
     55300   0.48686412     0.24318863    -2.0097315      0.0096465146   0.2431873      0.50072169   
     55400   0.50141998     0.25045928    -2.0092786     -0.014063768    0.25045791     0.51437506   
     55500   0.46177936     0.23065879    -2.019238      -0.0098298373   0.23065748     0.48176831   
     55600   0.48273446     0.24112586    -2.0156127      0.0049617213   0.24112455     0.48977869   
     55700   0.52675203     0.26311264    -2.0263421     -0.0011645806   0.26311127     0.51998766   
     55800   0.52543464     0.2624546     -2.0293241      0.0090331017   0.26245327     0.503168     
     55900   0.51908937     0.25928514    -2.028391       0.011216355    0.25928379     0.50805047   
     56000   0.47702229     0.23827263    -2.0278504      0.0059588676   0.2382713      0.48646998   
     56100   0.48064844     0.2400839     -2.026425       0.0035991644   0.24008258     0.49532765   
     56200   0.50473637     0.25211582    -2.0310138     -0.0055089125   0.25211443     0.50949374   
     56300   0.49053579     0.24502262    -2.0327604      0.01524949     0.24502128     0.5042743    
     56400   0.51073667     0.25511297    -2.0335728     -0.0072299468   0.2551116      0.50516981   
     56500   0.50762785     0.25356011    -2.0315298      0.010431581    0.25355874     0.50770144   
     56600   0.48880705     0.24415912    -2.0250447      0.0096621512   0.24415782     0.48226417   
     56700   0.5195188      0.25949964    -2.030685       0.0082452312   0.25949827     0.513719     
     56800   0.49268092     0.24609412    -2.0254144      0.0039418647   0.2460928      0.49579295   
     56900   0.50397713     0.25173658    -2.0280944      0.003507794    0.25173522     0.50659265   
     57000   0.52085927     0.26016921    -2.0302571     -0.0081709514   0.26016784     0.51210014   
     57100   0.52040794     0.25994376    -2.0410922     -0.013892145    0.2599424      0.50980513   
     57200   0.49761991     0.24856115    -2.0408876      0.015291427    0.24855978     0.50707348   
     57300   0.49614139     0.24782262    -2.0457989      0.0012432627   0.24782126     0.50951846   
     57400   0.51121187     0.25535033    -2.0435311      0.014996508    0.25534901     0.50485766   
     57500   0.49980769     0.24965394    -2.040427       0.014925548    0.24965257     0.50944759   
     57600   0.50972974     0.25461       -2.0436545      0.0082494544   0.25460866     0.50940833   
     57700   0.51783793     0.25866004    -2.0397479     -0.0088684042   0.25865866     0.51844143   
     57800   0.50016492     0.24983238    -2.0395223     -0.0010638074   0.24983105     0.50255134   
     57900   0.50310342     0.25130016    -2.0539636      0.021118217    0.25129884     0.49662354   
     58000   0.5034711      0.25148381    -2.0551321     -0.0053856504   0.25148255     0.48373647   
     58100   0.49626294     0.24788334    -2.0554651      0.0032259776   0.24788198     0.50212032   
     58200   0.50456109     0.25202826    -2.0598963     -0.003520042    0.25202693     0.50210237   
     58300   0.49681665     0.24815992    -2.062147       0.0066416706   0.24815859     0.49967809   
     58400   0.51523329     0.25735903    -2.0610968      0.0035030368   0.25735769     0.50840999   
     58500   0.49791114     0.24870662    -2.0629607      0.011725333    0.24870524     0.50546149   
     58600   0.51801814     0.25875006    -2.0701332      0.012552785    0.25874869     0.51445424   
     58700   0.51790241     0.25869225    -2.0704694      0.010550294    0.25869094     0.50376476   
     58800   0.48503762     0.24227629    -2.0756325      0.010325656    0.24227492     0.49831731   
     58900   0.50553607     0.25251527    -2.077312      -0.0095470611   0.25251395     0.50230598   
     59000   0.52142483     0.2604517     -2.0707532      0.0037999205   0.26045031     0.5180017    
     59100   0.49678059     0.24814191    -2.0737692     -0.012132404    0.24814053     0.51053362   
     59200   0.50932761     0.25440914    -2.0826199     -0.0039071596   0.25440781     0.50435303   
     59300   0.5125365      0.25601198    -2.0914234      0.016194853    0.25601059     0.51533382   
     59400   0.48300024     0.24125862    -2.0844239      0.0045788729   0.24125726     0.50344051   
     59500   0.49575695     0.2476306     -2.0760757      0.027980407    0.24762927     0.49789875   
     59600   0.51601846     0.25775122    -2.0822724      0.0049212887   0.25774985     0.50515273   
     59700   0.53264226     0.26605481    -2.0775349      0.0043037289   0.26605342     0.52317508   
     59800   0.536699       0.26808115    -2.0714579     -0.00015492105  0.26807978     0.51391278   
     59900   0.5018762      0.25068716    -2.0807153      0.0016453805   0.25068583     0.50087936   
     60000   0.50229157     0.25089464    -2.0785965      0.0039526527   0.25089328     0.49809703   
     60100   0.52405336     0.26176465    -2.0833455     -0.00047743049  0.26176325     0.52020624   
     60200   0.47703327     0.23827812    -2.0760258      0.015842932    0.2382768      0.49381727   
     60300   0.49370552     0.24660591    -2.0846058      0.0082543665   0.24660459     0.49786343   
     60400   0.49514731     0.24732608    -2.0799792      0.0056671546   0.24732478     0.49307929   
     60500   0.51834148     0.25891157    -2.0796424      0.009958332    0.25891019     0.51752312   
     60600   0.50917459     0.25433271    -2.0791268      0.012304075    0.25433132     0.50974861   
     60700   0.49854674     0.2490241     -2.0805737      0.0074290491   0.24902274     0.50329354   
     60800   0.51464301     0.25706419    -2.0884518      0.011179205    0.25706282     0.50677051   
     60900   0.49673628     0.24811977    -2.0863813     -0.0045013213   0.24811846     0.49324402   
     61000   0.51659168     0.25803754    -2.0891355      0.0054346525   0.25803617     0.51363612   
     61100   0.49463278     0.24706907    -2.0816642      0.0048466674   0.24706774     0.49398878   
     61200   0.51155297     0.25552071    -2.0865348     -0.002338562    0.25551937     0.50518645   
     61300   0.47828037     0.23890105    -2.0886087      0.004087952    0.23889977     0.47869113   
     61400   0.51545206     0.2574683     -2.0949838      0.00071447498  0.25746694     0.51560568   
     61500   0.50553998     0.25251722    -2.0917179      0.014248092    0.25251585     0.50806212   
     61600   0.49129309     0.2454009     -2.1016085      0.01239068     0.24539955     0.49925884   
     61700   0.5031109      0.25130389    -2.0948056      0.00025932983  0.25130256     0.51081021   
     61800   0.50667557     0.25308445    -2.1088064      0.00099501731  0.25308303     0.52621314   
     61900   0.51747697     0.25847975    -2.1154728      0.012218754    0.25847838     0.51216806   
     62000   0.49308402     0.24629547    -2.1159241      0.0052217374   0.24629415     0.49497181   
     62100   0.51219699     0.25584239    -2.1134655      0.0081995751   0.25584103     0.51175043   
     62200   0.4947264      0.24711583    -2.1217977      0.029405702    0.24711451     0.50044877   
     62300   0.51726321     0.25837297    -2.1271832      0.017745395    0.25837161     0.51344685   
     62400   0.51142303     0.2554558     -2.1214323      0.0010859643   0.25545439     0.52065728   
     62500   0.50270872     0.25110301    -2.1228527      0.0010235692   0.2511017      0.49592414   
     62600   0.49969127     0.24959579    -2.1238939      0.017491045    0.24959443     0.5059204    
     62700   0.49381943     0.24666281    -2.1288165     -0.00053104103  0.24666148     0.49812209   
     62800   0.50748639     0.25348945    -2.1228991      0.010469412    0.25348809     0.51322631   
     62900   0.51308559     0.25628625    -2.1214597      0.012351936    0.25628484     0.51654323   
     63000   0.50510273     0.25229881    -2.122604      -0.011450415    0.25229747     0.50511548   
     63100   0.50734504     0.25341885    -2.1314508      0.015523942    0.2534175      0.50081463   
     63200   0.53144309     0.26545582    -2.1285777     -0.0074021076   0.26545446     0.51140932   
     63300   0.51688957     0.25818634    -2.1288155      0.012752802    0.25818496     0.52266414   
     63400   0.5038173      0.25165674    -2.1402631      0.0095688343   0.25165541     0.50025832   
     63500   0.49067799     0.24509366    -2.1281215      0.0011951044   0.24509233     0.49888921   
     63600   0.51743484     0.2584587     -2.1342314      0.0077073504   0.25845734     0.51143405   
     63700   0.49912711     0.24931399    -2.133381       0.018601765    0.24931265     0.49994049   
     63800   0.49856885     0.24903514    -2.1324667      0.023667765    0.2490338      0.49379894   
     63900   0.48539848     0.24245654    -2.1337672     -0.0075831974   0.2424552      0.49290815   
     64000   0.49569713     0.24760072    -2.1376193      0.0019027072   0.2475994      0.49364361   
     64100   0.51214315     0.25581551    -2.1347146      0.0083081527   0.25581414     0.51736418   
     64200   0.49389376     0.24669994    -2.1346745     -0.0051273136   0.24669861     0.49190426   
     64300   0.50414123     0.25181854    -2.1511518     -0.005398101    0.25181718     0.5029564    
     64400   0.49010174     0.24480582    -2.1437636      0.0093763354   0.24480449     0.4966438    
     64500   0.50409935     0.25179763    -2.1424696      0.0018962505   0.25179626     0.51226705   
     64600   0.48276615     0.24114169    -2.1412141      0.0029526847   0.24114035     0.49968662   
     64700   0.47510839     0.23731664    -2.1457929     -0.016750369    0.2373153      0.49603754   
     64800   0.49475391     0.24712958    -2.1490563     -0.008005217    0.24712825     0.496462     
     64900   0.49180209     0.24565514    -2.1435767      0.0025045103   0.24565382     0.49414425   
     65000   0.48484715     0.24218115    -2.145123       0.0033353421   0.24217983     0.48781246   
     65100   0.50772145     0.25360686    -2.1459873      0.00082069984  0.25360551     0.50638056   
     65200   0.51382481     0.25665549    -2.1434055      0.0071655063   0.25665413     0.51418651   
     65300   0.51996176     0.2597209     -2.1486057     -0.0084566061   0.25971957     0.50575221   
     65400   0.48722858     0.24337067    -2.142303      -0.0029513423   0.24336937     0.48963963   
     65500   0.50742622     0.2534594     -2.1424088      0.013299254    0.25345805     0.51042832   
     65600   0.50906807     0.2542795     -2.1428091     -0.0042163826   0.25427815     0.50579009   
     65700   0.50334083     0.25141874    -2.1397217     -0.005242249    0.25141736     0.51062663   
     65800   0.49082598     0.24516758    -2.1447739      0.025478109    0.24516625     0.49890882   
     65900   0.48284109     0.24117913    -2.1541213      0.005932276    0.24117782     0.4870952    
     66000   0.51693449     0.25820878    -2.1527726      0.0016477023   0.25820736     0.51915213   
     66100   0.50369612     0.25159621    -2.1514479      0.0059541862   0.25159482     0.51515169   
     66200   0.50470614     0.25210071    -2.1568563      0.018643784    0.25209934     0.51062917   
     66300   0.50202707     0.25076252    -2.1594002     -0.00632366     0.25076119     0.50386831   
     66400   0.50586414     0.25267914    -2.1560178     -0.0049866275   0.25267781     0.50481994   
     66500   0.52017262     0.25982622    -2.1668957     -0.0018477441   0.25982487     0.50921398   
     66600   0.52171388     0.26059608    -2.1781395     -0.004212331    0.2605947      0.52530641   
     66700   0.49726817     0.24838545    -2.1786557      0.022299096    0.2483841      0.50355663   
     66800   0.50797668     0.25373435    -2.1896962      0.01339927     0.25373299     0.50817935   
     66900   0.50044515     0.24997235    -2.1851309     -0.0053138319   0.249971       0.50097319   
     67000   0.50691464     0.25320386    -2.193248       0.005765364    0.25320254     0.50354538   
     67100   0.49763115     0.24856676    -2.1987398      0.0077943481   0.24856542     0.50111873   
     67200   0.50244709     0.25097232    -2.2038432      0.010138049    0.25097102     0.49648112   
     67300   0.50599508     0.25274454    -2.2043635      0.0028291925   0.2527432      0.50086018   
     67400   0.51668118     0.25808225    -2.2108603     -0.0032462998   0.25808088     0.51169505   
     67500   0.50065067     0.25007501    -2.2066374     -0.0065865128   0.25007364     0.50564495   
     67600   0.49156663     0.24553753    -2.2018803      0.00302829     0.2455362      0.49482642   
     67700   0.49688066     0.24819189    -2.2117251      0.024626099    0.24819052     0.5053799    
     67800   0.4944014      0.2469535     -2.2109297      0.020420548    0.24695217     0.48993855   
     67900   0.49757158     0.248537      -2.2119213      0.0090432562   0.24853567     0.501166     
     68000   0.52390553     0.26169081    -2.2109055      0.01423266     0.26168942     0.51172412   
     68100   0.48981578     0.24466298    -2.2187613      0.0058965809   0.24466166     0.49450639   
     68200   0.52669086     0.26308208    -2.2218027      0.016620487    0.26308069     0.52536391   
     68300   0.50090082     0.25019996    -2.2143575      0.0046164264   0.25019864     0.49757851   
     68400   0.50477387     0.25213455    -2.2192896      0.013599194    0.25213327     0.49396542   
     68500   0.49067075     0.24509004    -2.227261       3.0442207e-05  0.2450887      0.49891856   
     68600   0.4979362      0.24871913    -2.2242214      0.00049716725  0.2487178      0.5021546    
     68700   0.5080606      0.25377627    -2.2277174      0.01734898     0.25377492     0.50580108   
     68800   0.49404061     0.24677328    -2.2190982     -0.0084679254   0.24677194     0.49963533   
     68900   0.52726975     0.26337124    -2.2186098     -0.015925624    0.26336988     0.51426249   
     69000   0.51595037     0.25771721    -2.2236054      0.012420876    0.25771587     0.50288371   
     69100   0.51267061     0.25607897    -2.2261249      0.00089121758  0.25607762     0.49745491   
     69200   0.5116421      0.25556523    -2.2286674      0.015571584    0.25556387     0.50665668   
     69300   0.5001574      0.24982862    -2.22158       -0.0022425032   0.24982727     0.50950178   
     69400   0.50177741     0.25063782    -2.2250242      0.0016720136   0.25063647     0.5012779    
     69500   0.49291097     0.24620903    -2.2247646      0.0049150237   0.24620767     0.50412639   
     69600   0.50121251     0.25035565    -2.2265587      0.024950548    0.25035429     0.50680584   
     69700   0.49629787     0.24790079    -2.2222563     -0.0014774504   0.24789948     0.49357799   
     69800   0.51011721     0.25480355    -2.2264079      0.011176127    0.25480218     0.50633681   
     69900   0.49419118     0.24684849    -2.2254563      0.016113951    0.24684718     0.49747349   
     70000   0.51971311     0.2595967     -2.2258978     -0.0056582935   0.25959536     0.50491624   
     70100   0.48537721     0.24244592    -2.2210708      0.014289375    0.24244461     0.48832563   
     70200   0.51261283     0.25605011    -2.2328083      0.025545769    0.25604874     0.50971174   
     70300   0.48750549     0.24350899    -2.2358967      0.0031734595   0.24350767     0.48922009   
     70400   0.50516569     0.25233026    -2.2348913     -0.0038825697   0.25232895     0.4968915    
     70500   0.5028327      0.25116493    -2.2363628      0.013397248    0.25116362     0.49699062   
     70600   0.51605866     0.2577713     -2.2327704      5.4032374e-05  0.25776997     0.50219344   
     70700   0.51203069     0.25575933    -2.2383071      0.011712995    0.25575796     0.51158882   
     70800   0.51468838     0.25708684    -2.2415612      0.018429115    0.2570855      0.50248132   
     70900   0.51593167     0.25770787    -2.237712      -0.0092695692   0.25770647     0.50975803   
     71000   0.48448478     0.24200015    -2.2403896      0.0092540181   0.24199885     0.48356671   
     71100   0.49800208     0.24875204    -2.2413458      0.0031530553   0.24875072     0.49823588   
     71200   0.5095202      0.25450534    -2.245859      -0.0025671818   0.254504       0.51403328   
     71300   0.51843163     0.2589566     -2.2378579     -0.011993753    0.25895527     0.50457573   
     71400   0.49881848     0.24915983    -2.2336114      0.0028774183   0.24915852     0.49732949   
     71500   0.50569453     0.25259442    -2.2443037      0.0069264436   0.25259309     0.4996442    
     71600   0.50418545     0.25184063    -2.239097       0.0052445094   0.25183932     0.49447753   
     71700   0.49409805     0.24680197    -2.239526       0.014079239    0.24680063     0.50426971   
     71800   0.52607962     0.26277677    -2.2409162      0.0035787541   0.2627754      0.51920346   
     71900   0.50347351     0.25148502    -2.2385284     -0.0094556684   0.25148369     0.50249968   
     72000   0.49763682     0.24856959    -2.2439422      0.0076178384   0.24856828     0.49239077   
     72100   0.499054       0.24927747    -2.2450808     -0.0007193984   0.24927613     0.49765228   
     72200   0.49588575     0.24769493    -2.2431881      0.0047316895   0.24769355     0.50530887   
     72300   0.50386649     0.25168131    -2.2515662      0.011508826    0.25167998     0.50177311   
     72400   0.4891306      0.24432073    -2.2391353     -0.00092314856  0.24431942     0.48830857   
     72500   0.50626136     0.25287755    -2.2390642      0.00068475416  0.25287619     0.51037942   
     72600   0.52539189     0.26243325    -2.2436555      0.0059722134   0.26243189     0.5075143    
     72700   0.49244528     0.24597642    -2.2501116      0.0028263048   0.24597507     0.50063363   
     72800   0.49510728     0.24730608    -2.2505952      0.0040102537   0.24730474     0.49939147   
     72900   0.49286021     0.24618367    -2.2481748     -0.025522948    0.24618236     0.49105445   
     73000   0.4871314      0.24332214    -2.2446806      0.0069844032   0.24332084     0.49116216   
     73100   0.49161524     0.24556181    -2.2550569      0.0073244311   0.24556049     0.49817282   
     73200   0.50758271     0.25353756    -2.2500678      0.0056603977   0.25353623     0.50268202   
     73300   0.49621218     0.24785798    -2.2552096      6.3733271e-05  0.24785668     0.50076432   
     73400   0.51648466     0.25798409    -2.2529814      0.0025709356   0.25798278     0.50310538   
     73500   0.51338315     0.25643488    -2.251467       0.012786778    0.25643353     0.50482436   
     73600   0.49904863     0.24927479    -2.248494       0.0025555373   0.24927346     0.50577025   
     73700   0.49559691     0.24755065    -2.2453181     -0.011280112    0.24754932     0.50517168   
     73800   0.50979974     0.25464497    -2.2490048      0.012985953    0.25464363     0.5025732    
     73900   0.50982874     0.25465946    -2.2510878     -0.013982133    0.25465816     0.50189145   
[...]
    981700   0.52002224     0.25975111    -3.8821341      0.022512995    0.25974973     0.51380579   
    981800   0.51330533     0.25639601    -3.883211       0.0094350222   0.25639466     0.51638985   
    981900   0.48965918     0.24458476    -3.8795502      0.0024193219   0.24458341     0.50108791   
    982000   0.51072606     0.25510766    -3.8775044      0.0022934251   0.2551063      0.51153387   
    982100   0.51172624     0.25560726    -3.8621315     -0.028437686    0.25560589     0.50880211   
    982200   0.50015779     0.24982882    -3.8706845     -0.014085959    0.24982742     0.51653228   
    982300   0.50483884     0.252167      -3.8781597      0.010431095    0.2521657      0.49126565   
    982400   0.49817073     0.24883628    -3.8668129      0.0111453      0.24883492     0.50433436   
    982500   0.50798978     0.2537409     -3.8763958     -0.0085952329   0.25373957     0.50129482   
    982600   0.49782483     0.2486635     -3.8707591      0.0024987622   0.24866217     0.5009698    
    982700   0.5042242      0.25185999    -3.8688613     -0.024308889    0.25185864     0.49746377   
    982800   0.51840098     0.25894129    -3.8765151      0.0049022073   0.25893991     0.51605447   
    982900   0.50169928     0.25059879    -3.8707906      0.012863019    0.25059743     0.50550055   
    983000   0.51524479     0.25736477    -3.8839951      0.0079593034   0.25736343     0.50709336   
    983100   0.53266184     0.26606459    -3.8761015      0.010241445    0.2660632      0.51636481   
    983200   0.50975028     0.25462026    -3.8686076     -0.0016343678   0.25461891     0.50392744   
    983300   0.52048953     0.25998452    -3.8700024     -0.02928057     0.25998313     0.51472969   
    983400   0.48405924     0.24178759    -3.8813853      0.017280076    0.24178624     0.50430011   
    983500   0.49215032     0.24582909    -3.873292      -0.018068926    0.24582773     0.5039322    
    983600   0.49177353     0.24564088    -3.8738132     -0.0054213515   0.2456395      0.50752967   
    983700   0.50476975     0.25213249    -3.866313      -0.01927189     0.25213114     0.50211164   
    983800   0.52986123     0.26466569    -3.874921       0.017280912    0.26466433     0.52158106   
    983900   0.49979682     0.24964851    -3.8719479      2.4815627e-06  0.24964713     0.50891202   
    984000   0.50196882     0.25073342    -3.8745739      0.0077509464   0.25073208     0.50887308   
    984100   0.52630506     0.26288938    -3.8741817     -0.016033683    0.26288804     0.51050277   
    984200   0.53273906     0.26610316    -3.8753424     -0.0048010485   0.26610175     0.5242738    
    984300   0.52128291     0.26038081    -3.877615      -0.01161153     0.26037947     0.51017237   
    984400   0.51837917     0.2589304     -3.8679656     -0.0061980426   0.25892901     0.51630007   
    984500   0.52008038     0.25978015    -3.8861353      0.0012021964   0.25977877     0.50972256   
    984600   0.5058081      0.25265115    -3.8808045      0.005486594    0.25264976     0.51411492   
    984700   0.50508544     0.25229018    -3.8732182     -0.001331981    0.25228882     0.5069945    
    984800   0.51149296     0.25549073    -3.8742745     -0.005932403    0.25548935     0.51837842   
    984900   0.51130058     0.25539464    -3.8809274     -0.024844605    0.25539329     0.50316734   
    985000   0.50576618     0.25263021    -3.8654855     -0.013966152    0.25262886     0.49920718   
    985100   0.52217288     0.26082535    -3.8728802      0.0006892346   0.260824       0.516524     
    985200   0.50029404     0.24989687    -3.8725318     -0.006949414    0.24989548     0.51121871   
    985300   0.50370289     0.2515996     -3.8688496     -0.018050145    0.25159829     0.50157135   
    985400   0.50589709     0.2526956     -3.87906       -0.0078781608   0.2526942      0.52138646   
    985500   0.51676282     0.25812303    -3.8790776     -0.0095989862   0.25812166     0.51177366   
    985600   0.52613392     0.2628039     -3.8716632      0.027641046    0.26280253     0.51055057   
    985700   0.5054672      0.25248087    -3.8748288      0.015064736    0.25247953     0.50388027   
    985800   0.50319708     0.25134694    -3.8791447      0.012914822    0.25134561     0.5015356    
    985900   0.49653041     0.24801694    -3.8752098     -0.011838419    0.2480156      0.50133988   
    986000   0.50298563     0.25124132    -3.8729443     -0.004400408    0.25123997     0.50066157   
    986100   0.52047866     0.25997909    -3.882663      -0.034224922    0.25997771     0.51601982   
    986200   0.50003495     0.24976746    -3.8763089      0.0094423501   0.24976606     0.51181259   
    986300   0.48828798     0.24389985    -3.8795252     -0.0021859991   0.24389852     0.49311321   
    986400   0.50111903     0.25030895    -3.8842504     -0.019334261    0.25030759     0.50646883   
    986500   0.49286751     0.24618732    -3.8730167      0.0079773874   0.24618593     0.50786405   
    986600   0.47959443     0.23955742    -3.883658       0.0085189769   0.23955605     0.50188067   
    986700   0.50625295     0.25287335    -3.8771801     -0.00011851911  0.25287201     0.49636652   
    986800   0.51980041     0.25964031    -3.8795018     -0.01558593     0.25963895     0.51232011   
    986900   0.51361583     0.25655111    -3.8815171     -0.021493859    0.25654974     0.50962606   
    987000   0.52762616     0.26354927    -3.8744759     -0.016809518    0.26354788     0.51950557   
    987100   0.50587056     0.25268235    -3.8731024     -0.028692721    0.25268102     0.50361429   
    987200   0.52562086     0.26254762    -3.8788609      0.0026384307   0.26254626     0.51285791   
    987300   0.53470518     0.26708524    -3.8795232     -0.0093347728   0.26708385     0.51696432   
    987400   0.51801095     0.25874647    -3.8722434      0.01161463     0.25874508     0.51652573   
    987500   0.49207664     0.24579228    -3.8732688      0.018165071    0.24579096     0.49585055   
    987600   0.54830186     0.27387678    -3.866649      -0.027295603    0.27387533     0.53317895   
    987700   0.49175904     0.24563364    -3.8786466     -0.0088074824   0.24563228     0.50110853   
    987800   0.52129373     0.26038622    -3.8802254     -0.0061649514   0.26038484     0.51938475   
    987900   0.48849864     0.24400507    -3.8751918     -0.012192233    0.24400379     0.48922618   
    988000   0.51765286     0.2585676     -3.8635619      0.0076304238   0.25856625     0.50781592   
    988100   0.51384398     0.25666507    -3.8672952     -0.0017891581   0.25666364     0.5233175    
    988200   0.50285458     0.25117586    -3.8736915      0.0014110999   0.25117449     0.51105107   
    988300   0.53070625     0.26508777    -3.8697867      0.001206562    0.26508642     0.51947366   
    988400   0.50686959     0.25318136    -3.8779087     -0.0337909      0.25318        0.51525      
    988500   0.47104169     0.23528532    -3.8734668      0.0025566174   0.23528398     0.49253238   
    988600   0.51148345     0.25548598    -3.8824998      0.0025338523   0.2554846      0.51991372   
    988700   0.5161579      0.25782087    -3.8783006     -0.018057066    0.2578195      0.51514408   
    988800   0.50598298     0.2527385     -3.8743463      0.0061391963   0.25273718     0.49420327   
    988900   0.49916276     0.2493318     -3.8785769      0.0062250606   0.24933046     0.50548704   
    989000   0.48956456     0.2445375     -3.8703282     -0.015671716    0.24453614     0.50355883   
    989100   0.52100545     0.26024222    -3.8633547     -0.022975504    0.26024082     0.52022566   
    989200   0.50750975     0.25350112    -3.8651904     -0.018003241    0.25349982     0.49998915   
    989300   0.52004731     0.25976363    -3.868431      -0.0059550672   0.25976228     0.50694914   
    989400   0.51730942     0.25839606    -3.8719705      0.0019171082   0.25839468     0.51610375   
    989500   0.51353311     0.25650979    -3.8756212     -0.019357706    0.25650841     0.51986635   
    989600   0.51336331     0.25642497    -3.8701996      0.011102096    0.25642362     0.5025748    
    989700   0.52213481     0.26080634    -3.8777289      0.00055595674  0.26080497     0.50852126   
    989800   0.50124311     0.25037094    -3.8647928     -0.0014574648   0.25036965     0.48758249   
    989900   0.50912131     0.25430609    -3.8658499     -0.011377536    0.25430476     0.49893331   
    990000   0.45997137     0.2297557     -3.8743603     -0.0034623521   0.22975443     0.47571855   
    990100   0.51026536     0.25487755    -3.8731399     -0.01419615     0.25487618     0.51464901   
    990200   0.48948986     0.24450018    -3.879004      -0.013857517    0.24449888     0.49017142   
    990300   0.52217143     0.26082463    -3.8735252      0.0052754764   0.26082322     0.5258635    
    990400   0.5189096      0.25919534    -3.8851856     -0.012984208    0.25919398     0.50758799   
    990500   0.4980917      0.2487968     -3.8836598      0.008952334    0.24879544     0.50346109   
    990600   0.50447685     0.25198619    -3.8823873     -0.036089042    0.25198479     0.51264993   
    990700   0.50340382     0.25145021    -3.8779752     -0.017273577    0.25144887     0.50358319   
    990800   0.52888962     0.26418037    -3.8813524      0.0043042807   0.26417903     0.50553268   
    990900   0.51179112     0.25563966    -3.8759995     -0.0049667828   0.25563826     0.51582169   
    991000   0.49470055     0.24710293    -3.8834817     -0.010233177    0.2471016      0.49593027   
    991100   0.52902123     0.26424611    -3.8792249     -0.011700228    0.26424468     0.53085289   
    991200   0.50417132     0.25183357    -3.8761028     -0.011066298    0.25183225     0.49558327   
    991300   0.50368637     0.25159134    -3.8734049     -0.00021734324  0.25158996     0.51306135   
    991400   0.5202986      0.25988915    -3.8728853     -0.019065389    0.25988784     0.50801697   
    991500   0.499364       0.24943232    -3.8702884     -0.013652521    0.249431       0.49525884   
    991600   0.50096374     0.25023139    -3.8781427     -0.012496292    0.25023001     0.5174995    
    991700   0.52382444     0.26165031    -3.8810841      0.011561909    0.26164899     0.50519282   
    991800   0.50867237     0.25408185    -3.8711503     -0.011396233    0.25408054     0.498603     
    991900   0.50527061     0.25238267    -3.8689589     -0.032534879    0.25238135     0.50257255   
    992000   0.4976404      0.24857138    -3.8845917      0.0042223551   0.24857        0.50783185   
    992100   0.49079145     0.24515033    -3.8768296      0.0094065274   0.24514901     0.50181348   
    992200   0.49392515     0.24671561    -3.8923058      0.0053592499   0.24671427     0.49852719   
    992300   0.51579984     0.25764202    -3.8834975      0.013628149    0.25764062     0.51931339   
    992400   0.51153911     0.25551378    -3.8790027     -0.013399875    0.25551247     0.49609443   
    992500   0.49805618     0.24877906    -3.880687       0.018707915    0.24877773     0.50200957   
    992600   0.50973703     0.25461365    -3.8729043     -0.011474726    0.2546123      0.50668788   
    992700   0.52162768     0.26055303    -3.8707626     -0.017537397    0.26055161     0.5203486    
    992800   0.49694837     0.24822571    -3.8853063     -0.00041930279  0.24822437     0.50519834   
    992900   0.51942352     0.25945205    -3.8728        -0.042574569    0.2594507      0.50466997   
    993000   0.51079704     0.25514312    -3.8707753     -0.019961699    0.25514176     0.51321143   
    993100   0.51290345     0.25619527    -3.8786783     -0.0029008199   0.25619389     0.51433603   
    993200   0.51165506     0.2555717     -3.8870302      0.0012567176   0.25557036     0.49720085   
    993300   0.51145875     0.25547365    -3.8841013      0.028867824    0.25547229     0.50494448   
    993400   0.54803093     0.27374145    -3.8742377     -0.002805129    0.27374006     0.5312008    
    993500   0.48381801     0.2416671     -3.8763695      0.0036897809   0.24166574     0.49740267   
    993600   0.5110103      0.25524965    -3.8708205     -0.024891542    0.25524827     0.51499402   
    993700   0.51490316     0.25719413    -3.8767925     -0.011155672    0.25719278     0.50493055   
    993800   0.50883955     0.25416535    -3.8795923     -0.0093065724   0.254164       0.50921319   
    993900   0.51529632     0.25739051    -3.8824146      0.015740721    0.25738917     0.50425253   
    994000   0.47876926     0.23914525    -3.8815225      0.0071657539   0.2391439      0.50025256   
    994100   0.5082953      0.2538935     -3.8660439     -0.052011338    0.25389216     0.50446219   
    994200   0.49866211     0.24908173    -3.870886      -0.0022542536   0.24908036     0.50759126   
    994300   0.50897933     0.25423517    -3.8608915     -0.012887372    0.25423377     0.51126882   
    994400   0.51425909     0.25687241    -3.8768088      0.004586272    0.2568711      0.50196469   
    994500   0.49233685     0.24592226    -3.8785859     -0.0071051006   0.24592092     0.50078559   
    994600   0.49864428     0.24907282    -3.8712421     -0.0027522735   0.24907146     0.51000018   
    994700   0.50092538     0.25021223    -3.8810915     -0.00046199763  0.25021083     0.51218466   
    994800   0.51434472     0.25691519    -3.8771217      0.017259768    0.25691383     0.50401401   
    994900   0.50504445     0.2522697     -3.8719855      0.0030417218   0.25226833     0.51110779   
    995000   0.49697862     0.24824082    -3.8813953      0.019886294    0.24823949     0.50249862   
    995100   0.52135718     0.26041791    -3.8750728     -0.036701447    0.26041653     0.50933299   
    995200   0.49144066     0.24547461    -3.8752459     -0.00034080313  0.24547325     0.50655145   
    995300   0.48745631     0.24348443    -3.8783564     -0.0059705142   0.2434831      0.49767386   
    995400   0.51654306     0.25801326    -3.8796486     -0.022023648    0.25801191     0.51066685   
    995500   0.49256942     0.24603842    -3.8801805      0.0077470015   0.24603709     0.50427017   
    995600   0.51433188     0.25690877    -3.8707724     -0.012230416    0.25690741     0.50927367   
    995700   0.51515139     0.25731812    -3.8744231     -0.0025128525   0.25731677     0.50438586   
    995800   0.51339807     0.25644234    -3.8769371      0.0071414196   0.25644098     0.50852071   
    995900   0.50168659     0.25059245    -3.8683983      0.004501517    0.25059109     0.50305753   
    996000   0.52102614     0.26025256    -3.8756019      0.025594639    0.26025125     0.49760214   
    996100   0.51611912     0.2578015     -3.8753613      0.013675141    0.25780018     0.50517552   
    996200   0.50546048     0.25247751    -3.8718397      0.0030485612   0.2524762      0.49824138   
    996300   0.50552094     0.25250771    -3.8828154     -0.02280573     0.25250639     0.49189816   
    996400   0.52582277     0.26264847    -3.8811576     -0.0021363908   0.26264714     0.51006873   
    996500   0.53309714     0.26628202    -3.8728813     -0.015756419    0.26628065     0.51839801   
    996600   0.52303646     0.26125671    -3.8699273      0.011855685    0.2612553      0.51971971   
    996700   0.51457116     0.25702829    -3.8762661      0.014812077    0.25702696     0.50405543   
    996800   0.49871369     0.24910749    -3.8741678      0.019863251    0.24910614     0.49562535   
    996900   0.51389678     0.25669144    -3.8683417     -0.012527884    0.25669006     0.50740674   
    997000   0.52229756     0.26088763    -3.8772143     -0.0090992447   0.26088627     0.51583835   
    997100   0.52019648     0.25983814    -3.8712662      0.0063063609   0.25983672     0.52382819   
    997200   0.49186741     0.24568777    -3.8793385     -0.022863631    0.24568638     0.50781648   
    997300   0.49687335     0.24818824    -3.8879239      0.013146422    0.24818687     0.50087871   
    997400   0.51037349     0.25493156    -3.8837555     -0.014090039    0.25493016     0.51662059   
    997500   0.52379433     0.26163527    -3.8762552     -0.0019073006   0.26163389     0.5182308    
    997600   0.53698703     0.26822502    -3.8793412      0.002633097    0.26822363     0.51776864   
    997700   0.49062773     0.24506855    -3.8739353      0.0098503987   0.24506716     0.50566456   
    997800   0.51570551     0.2575949     -3.8799366     -0.011728355    0.25759353     0.51086831   
    997900   0.50826539     0.25387856    -3.8795959      0.0012156238   0.25387718     0.51762409   
    998000   0.51192742     0.25570774    -3.8822479      0.008272763    0.25570635     0.51455642   
    998100   0.51343724     0.2564619     -3.8697582     -0.0013214229   0.25646057     0.50010693   
    998200   0.49667635     0.24808984    -3.8712843      0.0080904604   0.24808847     0.50427732   
    998300   0.52012094     0.25980041    -3.8772887      0.0017286766   0.25979909     0.50181672   
    998400   0.51676802     0.25812563    -3.879047       0.0066460709   0.25812428     0.50559987   
    998500   0.52311814     0.26129751    -3.8791412     -0.0047449927   0.26129617     0.50865299   
    998600   0.51048964     0.25498958    -3.8787957      0.01326066     0.25498826     0.50069741   
    998700   0.50156964     0.25053403    -3.8816162     -0.00014998092  0.25053267     0.50653267   
    998800   0.52450502     0.26199026    -3.8705151      0.0077600381   0.26198887     0.51051661   
    998900   0.50087316     0.25018615    -3.8703775      0.0055597249   0.25018476     0.50820354   
    999000   0.52432059     0.26189814    -3.8753182      0.0088492563   0.26189674     0.51777503   
    999100   0.50653868     0.25301607    -3.8860034     -0.0059604352   0.25301474     0.50087128   
    999200   0.51675179     0.25811752    -3.8819179     -0.010904483    0.25811613     0.51264323   
    999300   0.50709172     0.25329231    -3.8850741      0.0046068295   0.25329095     0.50922585   
    999400   0.51575134     0.2576178     -3.8712978     -0.0069022149   0.25761647     0.51105392   
    999500   0.51525822     0.25737148    -3.8730641      0.007177771    0.25737015     0.50764241   
    999600   0.50651626     0.25300487    -3.8762157      0.031596609    0.25300354     0.5006641    
    999700   0.52007507     0.2597775     -3.8860397      0.0054286822   0.25977608     0.52051434   
    999800   0.51138171     0.25543516    -3.8755974      0.015492891    0.25543381     0.50724952   
    999900   0.51096699     0.25522801    -3.8865294      0.010366654    0.25522666     0.50830233   
   1000000   0.50878672     0.25413897    -3.8739738     -0.0053460337   0.2541376      0.50987961   
Loop time of 1408.63 on 1 procs for 1000000 steps with 3000 atoms

Performance: 306681.982 tau/day, 709.912 timesteps/s, 2.130 Matom-step/s
99.7% CPU use with 1 MPI tasks x 1 OpenMP threads

MPI task timing breakdown:
Section |  min time  |  avg time  |  max time  |%varavg| %total
---------------------------------------------------------------
Pair    | 42.295     | 42.295     | 42.295     |   0.0 |  3.00
Bond    | 0.048121   | 0.048121   | 0.048121   |   0.0 |  0.00
Neigh   | 857.57     | 857.57     | 857.57     |   0.0 | 60.88
Comm    | 63.369     | 63.369     | 63.369     |   0.0 |  4.50
Output  | 0.66306    | 0.66306    | 0.66306    |   0.0 |  0.05
Modify  | 418.74     | 418.74     | 418.74     |   0.0 | 29.73
Other   |            | 25.94      |            |       |  1.84

Nlocal:           3000 ave        3000 max        3000 min
Histogram: 1 0 0 0 0 0 0 0 0 0
Nghost:           1180 ave        1180 max        1180 min
Histogram: 1 0 0 0 0 0 0 0 0 0
Neighs:              0 ave           0 max           0 min
Histogram: 1 0 0 0 0 0 0 0 0 0

Total # of neighbors = 0
Ave neighs/atom = 0
Ave special neighs/atom = 0
Neighbor list builds = 1000000
Dangerous builds not checked

Total wall time: 0:23:29
