LAMMPS (10 Sep 2025 - Development - patch_10Sep2025-660-g792d014343)
OMP_NUM_THREADS environment is not set. Defaulting to 1 thread.
  using 1 OpenMP thread(s) per MPI task
# Defining essential variables

units lj
atom_style  hybrid sphere molecular
WARNING: Atom style hybrid defines both, per-type and per-atom masses; both must be set, but only per-atom masses will be used (src/atom_vec_hybrid.cpp:132)
boundary p p p
pair_style hybrid lj/cut 2.0 cosine/squared 0.12




# Creating simulation box

region box block 0 30.0 0 30.0 0 30.0
create_box 2 box
Created orthogonal box = (0 0 0) to (30 30 30)
  1 by 1 by 1 MPI processor grid




# Loading and creating molecule from the given template

molecule patchy_part patchy_molecule.mol
Read molecule template patchy_part:
(no title)
  1 molecules
  0 fragments
  0 bodies
  3 atoms with max type 2
  0 bonds with max type 0
  0 angles with max type 0
  0 dihedrals with max type 0
  0 impropers with max type 0
create_atoms 0 random 1000 87910 NULL mol patchy_part 454756 overlap 1.5 maxtry 50
Created 3000 atoms
  using lattice units in orthogonal box = (0 0 0) to (30 30 30)
  create_atoms CPU = 0.214 seconds



pair_modify shift yes
WARNING: pair_modify shift has no effect on pair_style cosine/squared (src/EXTRA-PAIR/pair_cosine_squared.cpp:219)
# Defining particle properties and interaction parameters among the particles

pair_coeff 1 1 lj/cut 1.0 1.0 1.1224
pair_coeff 1 2 none
pair_coeff 2 2 cosine/squared 8 0.3 0.35        # Gaussian potential for peripheral atoms

set type 1 mass 1.0
Setting atom values ...
  1000 settings made for mass
set type 2 mass 0.000001
Setting atom values ...
  2000 settings made for mass

set type 1 diameter 1.0
Setting atom values ...
  1000 settings made for diameter
set type 2 diameter 0.0
Setting atom values ...
  2000 settings made for diameter




# Grouping the particles in different set to apply different fixes

group core type 1
1000 atoms in group core
group patch type 2
2000 atoms in group patch
group rigid_molecule type 1 2
3000 atoms in group rigid_molecule




# Speeding up simulation by excluding the unnecessary calculation of particles within the molecule

neigh_modify exclude molecule/intra rigid_molecule every 1 delay 0 check no




# Setting up thermostat on the brownian particles while the patches are being treated just an interaction cites

fix thermo_stat  core langevin 0.1 0.1 0.1 428984  omega yes




# Exporting the simulation data

dump 1 all custom 10000 simulation_data.lammpstrj id type x y z mol
fix rigid_thermo rigid_molecule rigid/small molecule
Fix rigid/small setup ...
  create bodies CPU = 0.000 seconds
  1000 rigid bodies with 3000 atoms
  0.5 = max distance from body owner to body atom




# Computing temperature and kinetic energy just on the central core particles

compute kinetic_core core ke
fix kinetic_output core ave/time 100 1 100 c_kinetic_core file kinetic.dat mode scalar

compute temp_core core temp/sphere
fix temp_output core ave/time 100 1 100 c_temp_core file temperature.dat mode scalar




# Defining the time step achieved in lj unit with each simulation step

timestep 0.005                               # Set timestep




# Specifying the parameters to be printed on the terminal

thermo 100
thermo_style custom step temp ke pe press c_kinetic_core c_temp_core




# Running the simulation

run 1000000
Generated 0 of 1 mixed pair_coeff terms from geometric mixing rule
Neighbor list info ...
  update: every = 1 steps, delay = 0 steps, check = no
  max neighbors/atom: 2000, page size: 100000
  master list distance cutoff = 1.4224
  ghost atom cutoff = 1.4224
  binsize = 0.7112, bins = 43 43 43
  3 neighbor lists, perpetual/occasional/extra = 3 0 0
  (1) pair lj/cut, perpetual, skip from (3)
      attributes: half, newton on
      pair build: skip
      stencil: none
      bin: none
  (2) pair cosine/squared, perpetual, skip from (3)
      attributes: half, newton on
      pair build: skip
      stencil: none
      bin: none
  (3) neighbor class addition, perpetual
      attributes: half, newton on
      pair build: half/bin/newton
      stencil: half/bin/3d
      bin: standard
WARNING: Computing temperature of portions of rigid bodies (src/RIGID/fix_rigid_small.cpp:1110)
Per MPI rank memory allocation (min/avg/max) = 13.68 | 13.68 | 13.68 Mbytes
   Step          Temp          KinEng         PotEng         Press      c_kinetic_core  c_temp_core  
         0   0              0              0              0.059540946    0              0            
       100   0.098056547    0.048979245    0              0.0036280787   0.04897898     0.10000036   
       200   0.10160546     0.050751929    0              0.0037593881   0.050751654    0.10290638   
       300   0.104866       0.052380568    0              0.0038800288   0.0523803      0.10155585   
       400   0.10148253     0.050690522    3.2231361e-05  0.0038325891   0.050690254    0.099280595  
       500   0.10066973     0.050284528    0              0.0037247669   0.050284266    0.099881811  
       600   0.095292086    0.047598397    9.6390914e-08  0.0035283561   0.047598136    0.097884171  
       700   0.099223519    0.049562148    7.0134823e-05  0.0037703828   0.04956188     0.10009848   
       800   0.099970485    0.049935257    6.7223383e-06  0.0037316037   0.049934998    0.09797205   
       900   0.096107766    0.048005829    7.9665435e-05  0.0036930139   0.048005567    0.098538019  
      1000   0.098907985    0.049404539    6.5931843e-05  0.0037771032   0.049404286    0.097118852  
      1100   0.097908884    0.048905488    5.3645891e-05  0.0037403198   0.048905217    0.098700757  
      1200   0.099945294    0.049922674    3.7171203e-05  0.0037689422   0.04992241     0.099144788  
      1300   0.095372081    0.047638354    1.0654673e-06  0.0035376035   0.047638096    0.09809893   
      1400   0.10209535     0.050996627    1.4819129e-06  0.003793894    0.050996355    0.10207227   
      1500   0.10351766     0.051707071    0.00015624753  0.0041433145   0.051706811    0.098810845  
      1600   0.10125152     0.050575135    3.2808588e-05  0.0038251027   0.050574869    0.10016594   
      1700   0.097001789    0.048452394    9.2991674e-05  0.0037517641   0.048452126    0.098486523  
      1800   0.097124772    0.048513824    0.00012746179  0.0037903139   0.048513557    0.099309152  
      1900   0.1013035      0.050601096    5.4384215e-05  0.0038859118   0.05060082     0.10172676   
      2000   0.10122548     0.050562128    0.00011035045  0.0039600477   0.05056187     0.099526346  
      2100   0.10382598     0.051861079    0.00016709269  0.0040979339   0.051860806    0.10270562   
      2200   0.10154327     0.050720862    4.8179961e-05  0.0038637361   0.050720589    0.10229367   
      2300   0.10283299     0.05136508     0.00012320567  0.0040450725   0.051364803    0.10442938   
      2400   0.10254703     0.051222242    1.6255423e-05  0.0038356761   0.051221974    0.10240489   
      2500   0.098422283    0.04916193     7.1769625e-05  0.0038028108   0.049161663    0.10099908   
      2600   0.097110336    0.048506613    8.3188544e-05  0.0037626916   0.048506342    0.098764703  
      2700   0.10053641     0.050217937   -0.002466619    0.0039570973   0.050217671    0.10030534   
      2800   0.10213417     0.051016017   -0.0026143425   0.0039024651   0.051015751    0.10045199   
      2900   0.10078651     0.050342863   -0.0026405112   0.0038112768   0.0503426      0.099240774  
      3000   0.10289106     0.051394086   -0.0050220876   0.004134497    0.051393816    0.10236026   
      3100   0.099635053    0.049767709   -0.0079838563   0.003647451    0.049767441    0.10002939   
      3200   0.10079374     0.050346473   -0.010594134    0.0038332886   0.050346203    0.10033586   
      3300   0.10371245     0.05180437    -0.013019786    0.0042440253   0.051804109    0.098992353  
      3400   0.097445977    0.048674265   -0.015798711    0.003997864    0.048674008    0.097161374  
      3500   0.10451785     0.052206667   -0.015841303    0.0042064583   0.052206395    0.10137364   
      3600   0.094779812    0.047342516   -0.015823782    0.0033110442   0.047342248    0.098538327  
      3700   0.098001988    0.048951993   -0.01578593     0.0040466078   0.048951731    0.098244983  
      3800   0.10172826     0.050813264   -0.018571041    0.0036645356   0.050812999    0.099820602  
      3900   0.098482489    0.049192003   -0.021075868    0.0041527999   0.049191738    0.098789524  
      4000   0.098274721    0.049088223   -0.021228125    0.0037069424   0.04908796     0.099043374  
      4100   0.097933409    0.048917738   -0.021110616    0.0039855758   0.048917474    0.099136874  
      4200   0.1015833      0.050740857   -0.021258293    0.0036013222   0.050740578    0.10276253   
      4300   0.098431821    0.049166695   -0.021227429    0.003901747    0.049166429    0.099195222  
      4400   0.097126014    0.048514444   -0.021202753    0.0038483017   0.048514185    0.097541648  
      4500   0.099325529    0.049613102   -0.026516002    0.0039953681   0.049612843    0.099951043  
      4600   0.099322804    0.04961174    -0.029164695    0.0039964947   0.049611471    0.099896923  
      4700   0.098654834    0.04927809    -0.031675889    0.0039061728   0.04927782     0.10127195   
      4800   0.10043742     0.050168493   -0.031861063    0.0040327972   0.050168223    0.10033915   
      4900   0.098681295    0.049291307   -0.034437066    0.0038532044   0.049291042    0.09799408   
      5000   0.094629637    0.047267504   -0.037162041    0.0037696672   0.047267236    0.098730165  
      5100   0.10097232     0.050435674   -0.037174398    0.0039496714   0.050435405    0.10144911   
      5200   0.10372416     0.05181022    -0.039571606    0.0045990289   0.051809951    0.10093695   
      5300   0.10043512     0.050167342   -0.039846406    0.0040733396   0.050167077    0.10039727   
      5400   0.10057441     0.050236917   -0.03977983     0.0040757298   0.050236654    0.099174173  
      5500   0.1009492      0.050424127   -0.042469514    0.0041472809   0.050423862    0.1001933    
      5600   0.10176395     0.050831094   -0.047469364    0.0026964798   0.050830828    0.1000464    
      5700   0.1027727      0.051334961   -0.050471117    0.0041626538   0.051334689    0.10141924   
      5800   0.09827098     0.049086354   -0.053014701    0.0040034507   0.049086084    0.10006335   
      5900   0.10146627     0.050682401   -0.053130769    0.0042774713   0.050682132    0.10121383   
      6000   0.096449067    0.048176309   -0.058516832    0.0038727785   0.04817605     0.098099809  
      6100   0.096920226    0.048411653   -0.058339719    0.0039198823   0.048411391    0.09815785   
      6200   0.099102423    0.04950166    -0.058385625    0.0042842206   0.049501394    0.099806008  
      6300   0.099389141    0.049644876   -0.060935475    0.0043528277   0.049644612    0.09899805   
      6400   0.10162736     0.050762866   -0.063821322    0.0041367582   0.050762591    0.10163257   
      6500   0.10240183     0.051149715   -0.066204874    0.0037330867   0.051149453    0.10058095   
      6600   0.1021693      0.051033567   -0.066040211    0.0028173399   0.051033297    0.10075966   
      6700   0.10023507     0.050067416   -0.071679187    0.0039892624   0.050067145    0.10108849   
      6800   0.098652803    0.049277075   -0.071674275    0.0042580844   0.049276806    0.10194025   
      6900   0.098019065    0.048960523   -0.074232499    0.0036487724   0.048960266    0.09773724   
      7000   0.10197556     0.050936792   -0.077061208    0.0040026726   0.050936518    0.10228607   
      7100   0.099126624    0.049513749   -0.076975768    0.0040423095   0.04951349     0.098635103  
      7200   0.09720508     0.048553937   -0.077041623    0.0033208389   0.048553674    0.098965761  
      7300   0.10355334     0.051724893   -0.084405227    0.0039431597   0.051724635    0.099970564  
      7400   0.10676529     0.053329263   -0.087610197    0.00365121     0.053328992    0.10318912   
      7500   0.10275472     0.051325981   -0.087682536    0.0043898968   0.051325714    0.10036893   
      7600   0.099821663    0.049860921   -0.087398444    0.004494667    0.049860651    0.099866281  
      7700   0.10126107     0.050579904   -0.090241664    0.0034959088   0.050579634    0.099890773  
      7800   0.098763594    0.049332415   -0.092855732    0.003525351    0.049332156    0.098170396  
      7900   0.10320851     0.051552648   -0.092876237    0.0044566871   0.051552379    0.10141905   
      8000   0.096999352    0.048451176   -0.093031846    0.0031323174   0.048450906    0.10123927   
      8100   0.10682631     0.053359743   -0.098377648    0.003836582    0.05335947     0.1037178    
      8200   0.097609348    0.04875587    -0.098126861    0.0031615129   0.048755612    0.097955706  
      8300   0.10443686     0.052166209   -0.10355743     0.0036224689   0.052165947    0.10026028   
      8400   0.1036817      0.051789009   -0.10323669     0.0039385104   0.051788743    0.10024083   
      8500   0.10140318     0.050650887   -0.10370018     0.0044163941   0.050650618    0.10125825   
      8600   0.09833652     0.049119091   -0.10339981     0.0036598467   0.049118825    0.099035068  
      8700   0.1011587      0.050528772   -0.10879304     0.0043084865   0.050528507    0.099489184  
      8800   0.10201205     0.050955021   -0.10893798     0.002327247    0.05095475     0.10188566   
      8900   0.10229371     0.051095709   -0.11139294     0.0041235629   0.051095448    0.09904883   
      9000   0.10021255     0.050056171   -0.11146708     0.004237161    0.050055902    0.10119075   
      9100   0.10633819     0.053115927   -0.11583485     0.001741459    0.053115651    0.10389751   
      9200   0.097476061    0.048689292   -0.1221471      0.0023507425   0.048689028    0.09890842   
      9300   0.10045633     0.050177937   -0.12152727     0.0042287582   0.05017767     0.099765925  
      9400   0.10242743     0.051162502   -0.12194751     0.0032988386   0.051162232    0.10103995   
      9500   0.10005257     0.049976257   -0.12721028     0.0044043222   0.049975986    0.10010568   
      9600   0.097458224    0.048680383   -0.12718266     0.0045432959   0.048680115    0.098554621  
      9700   0.10604246     0.052968208   -0.13003036     0.0024948023   0.052967941    0.10190473   
      9800   0.097201233    0.048552016   -0.12991795     0.0047884991   0.048551752    0.097360463  
      9900   0.10053037     0.05021492    -0.13005244     0.0046510884   0.050214641    0.1026609    
     10000   0.098804449    0.049352822   -0.13014134     0.0039569657   0.049352559    0.098047091  
     10100   0.10288897     0.051393038   -0.13834415     0.0028512898   0.051392762    0.10189515   
     10200   0.096029607    0.047966788   -0.1380052      0.0048567798   0.047966531    0.096646107  
     10300   0.096538566    0.048221014   -0.14012844     0.0043559429   0.048220754    0.097414711  
     10400   0.10067003     0.050284678   -0.14094078     0.0034765322   0.050284407    0.10095135   
     10500   0.10079592     0.050347564   -0.14065327     0.0049256587   0.050347291    0.10136543   
     10600   0.094713619    0.047309453   -0.14359042     0.0020717668   0.047309192    0.098037042  
     10700   0.098375743    0.049138684   -0.14355579     0.0041961854   0.049138427    0.096845674  
     10800   0.097875376    0.04888875    -0.14320685     0.0029891307   0.048888483    0.099458236  
     10900   0.099736237    0.049818251   -0.14361025     0.0044719235   0.049817983    0.09923719   
     11000   0.098957499    0.049429271   -0.14370241     0.0031358492   0.04942901     0.098811874  
     11100   0.10067793     0.050288624   -0.14849854     0.0037716747   0.050288355    0.1000202    
     11200   0.096587949    0.04824568    -0.1487071      0.0037581446   0.048245425    0.096337411  
     11300   0.097734551    0.048818408   -0.14886312     0.0035773848   0.048818151    0.097507932  
     11400   0.1021375      0.051017683   -0.15144332     0.0044416973   0.051017412    0.10215656   
     11500   0.10407691     0.051986418   -0.15164962     0.0035049862   0.051986148    0.10247118   
     11600   0.099026085    0.04946353    -0.15152092     0.004536173    0.049463261    0.099540574  
     11700   0.098595878    0.049248641   -0.15143022     0.0041820726   0.049248383    0.096720977  
     11800   0.097529918    0.048716194   -0.15162909     0.0034335607   0.04871593     0.099627416  
     11900   0.10193949     0.050918773   -0.15908043     0.0034306299   0.050918511    0.10012207   
     12000   0.10255021     0.051223831   -0.15918419     0.0052946634   0.051223559    0.10090825   
     12100   0.096498653    0.048201077   -0.16188708     0.0042937415   0.048200819    0.098300758  
     12200   0.094302713    0.047104205   -0.16191402     0.0024809329   0.047103943    0.098520442  
     12300   0.10021118     0.050055484   -0.16178042     0.0052250358   0.050055216    0.10124127   
     12400   0.10349594     0.051696221   -0.16698384     0.0023235611   0.051695944    0.10287736   
     12500   0.095988179    0.047946096   -0.1672619      0.0037833591   0.047945831    0.098273857  
     12600   0.095420287    0.047662433   -0.16730901     0.0048181395   0.047662174    0.097934156  
     12700   0.10026828     0.050084005   -0.16764933     0.0037994872   0.050083744    0.09816679   
     12800   0.10196653     0.050932282   -0.16981243     0.0038539498   0.050932021    0.098728248  
     12900   0.098762197    0.049331717   -0.16981404     0.003083384    0.049331455    0.098758549  
     13000   0.10159812     0.050748262   -0.17274453     0.0048782902   0.050747999    0.099301712  
     13100   0.1034607      0.051678621   -0.175026       0.0045007134   0.05167834     0.10406226   
     13200   0.10100992     0.050454457   -0.17803702     0.0032771346   0.050454194    0.10051408   
     13300   0.10005011     0.049975028   -0.18080831     0.0038740371   0.049974763    0.099817559  
     13400   0.09571318     0.047808734   -0.18069523     0.0023940565   0.047808475    0.096448877  
     13500   0.095242011    0.047573385   -0.18080796     0.0035585459   0.047573121    0.09841158   
     13600   0.10111309     0.050505989   -0.18574972     0.003821987    0.050505719    0.10135452   
     13700   0.099611801    0.049756095   -0.18598516     0.0040127114   0.049755829    0.10022673   
     13800   0.10028559     0.050092653   -0.18623586     0.0040836638   0.050092379    0.10195908   
     13900   0.099893468    0.049896787   -0.18586797     0.0034274523   0.049896522    0.098773902  
     14000   0.096501409    0.048202454   -0.1861049      0.0040983546   0.048202186    0.099410591  
     14100   0.10309195     0.051494428   -0.18866709     0.0035807443   0.051494166    0.099343286  
     14200   0.10410212     0.051999007   -0.18822346     0.0046718349   0.051998741    0.10150001   
     14300   0.10079849     0.050348844   -0.18828376     0.0027002913   0.050348579    0.099370905  
     14400   0.099785311    0.049842763   -0.18858461     0.0028497159   0.049842501    0.099327888  
     14500   0.10013712     0.050018493   -0.1905309      0.0049276198   0.050018225    0.10031966   
     14600   0.099202542    0.04955167    -0.19118484     0.0049666518   0.049551398    0.10104707   
     14700   0.10207691     0.050987418   -0.19212691     0.001138429    0.05098714     0.10290492   
     14800   0.097262405    0.048582571   -0.19602584     0.0054492452   0.048582313    0.099191268  
     14900   0.10077991     0.050339565   -0.19672779     0.0047771176   0.050339291    0.10248339   
     15000   0.099547805    0.049724129   -0.1988936      0.0038413415   0.049723863    0.10003005   
     15100   0.10348721     0.051691864   -0.20310348     0.00040053678  0.051691599    0.10050452   
     15200   0.10114029     0.050519574   -0.20504708     0.0040091305   0.050519321    0.09765804   
     15300   0.099481074    0.049690797   -0.20685623     0.002697814    0.049690539    0.097651703  
     15400   0.10017305     0.050036439   -0.20997039     0.0034435218   0.050036182    0.098556132  
     15500   0.10232715     0.051112409   -0.21257717     0.0044618633   0.051112143    0.10086571   
     15600   0.09974025     0.049820255   -0.21269134     0.0025447296   0.049819995    0.097893991  
     15700   0.10293799     0.051417524   -0.21513256     0.003739079    0.051417259    0.099882383  
     15800   0.096616159    0.048259772   -0.21809824     0.0034416493   0.048259498    0.1000852    
     15900   0.10347424     0.051685381   -0.21795953     0.0047271032   0.051685116    0.10063379   
     16000   0.097966127    0.048934081   -0.22613304     0.0036786637   0.048933816    0.098398227  
     16100   0.10008585     0.049992884   -0.22569545     0.0039632649   0.049992625    0.10022993   
     16200   0.10455375     0.052224599   -0.22613745     0.004285678    0.052224331    0.1013395    
     16300   0.098729326    0.049315298   -0.22832023     0.00072503751  0.049315028    0.098924601  
     16400   0.10492737     0.052411223   -0.22865692     0.0045693268   0.052410946    0.10418837   
     16500   0.10230723     0.051102462   -0.23102353     0.0054172275   0.051102192    0.10190408   
     16600   0.099476287    0.049688405   -0.23106079     0.0036740934   0.049688136    0.10138258   
     16700   0.098522998    0.049212237   -0.23106878     0.0022449943   0.049211972    0.09828588   
     16800   0.10233557     0.051116619   -0.23119748     0.0034970186   0.051116355    0.10066781   
     16900   0.096872338    0.048387733   -0.23633624     0.0024644807   0.04838747     0.098139491  
     17000   0.098645312    0.049273333   -0.23658956     0.0040203037   0.049273068    0.09946577   
     17100   0.10336736     0.051631994   -0.24148281     0.0045696002   0.051631725    0.10206925   
     17200   0.098906563    0.049403828   -0.2414505      0.0039443003   0.049403555    0.10080318   
     17300   0.10486778     0.052381454   -0.24466619     0.0036053774   0.052381181    0.10372292   
     17400   0.098903073    0.049402085   -0.24454446     0.0035438098   0.049401811    0.10076866   
     17500   0.10322737     0.051562072   -0.24719086     0.0039097646   0.051561789    0.10412637   
     17600   0.096261276    0.048082507   -0.24738278     0.0023617634   0.048082244    0.097475225  
     17700   0.098710024    0.049305657   -0.24941639     0.0041454941   0.049305403    0.097588873  
     17800   0.099240652    0.049570706   -0.25269291     0.0030325006   0.049570442    0.097582757  
     17900   0.10013833     0.050019096   -0.25523236     0.002919132    0.05001883     0.10101125   
     18000   0.10075742     0.050328331   -0.26298877     0.0038252612   0.05032806     0.10137673   
     18100   0.10006621     0.049983069   -0.26561498     0.0023934841   0.049982805    0.098732343  
     18200   0.097450682    0.048676615   -0.27112239     0.0011805326   0.048676349    0.09869951   
     18300   0.10374198     0.051819121   -0.27120565     0.0025864125   0.051818856    0.1019217    
     18400   0.097892237    0.048897172   -0.27124477     0.0026762077   0.048896902    0.10044799   
     18500   0.097684421    0.048793368   -0.27062938     0.0024604233   0.048793113    0.096416389  
     18600   0.10112163     0.050510256   -0.27115583     0.0044113271   0.050509993    0.099879656  
     18700   0.10060616     0.050252778   -0.27616636     0.0044090731   0.050252506    0.10113149   
     18800   0.098261531    0.049081635   -0.27643409     0.0032278372   0.049081375    0.097670462  
     18900   0.10397337     0.051934696   -0.27667435     0.0026812398   0.051934425    0.10334874   
     19000   0.098186763    0.049044288   -0.27627065     0.0024039474   0.049044021    0.099499718  
     19100   0.1028481      0.051372626   -0.27655926     0.005015893    0.051372355    0.10236776   
     19200   0.10162689     0.050762633   -0.2765124      0.0030285815   0.050762371    0.099220804  
     19300   0.10452664     0.052211058   -0.27859083     0.0015182081   0.052210792    0.099991663  
     19400   0.10090462     0.050401857   -0.28174367     0.0036338026   0.050401585    0.10181296   
     19500   0.097959298    0.048930669   -0.28193666     0.0020197045   0.048930402    0.09857096   
     19600   0.096819429    0.048361305   -0.28421381     0.0023176959   0.048361034    0.098244428  
     19700   0.096080571    0.047992245   -0.28438871     0.00311686     0.047991979    0.099154969  
     19800   0.10233132     0.051114496   -0.28436819     0.0038410712   0.051114217    0.1027656    
     19900   0.097147024    0.048524938   -0.28438037     0.0027754116   0.048524681    0.096557337  
     20000   0.098289669    0.04909569    -0.28692055     0.0045049521   0.049095428    0.09841955   
     20100   0.098081038    0.048991478   -0.28944578     0.0023404298   0.048991209    0.099169255  
     20200   0.10188376     0.050890939   -0.29218585     0.0022524436   0.050890669    0.1020015    
     20300   0.093488539    0.046697525   -0.29482998     0.0045567799   0.046697273    0.094632215  
     20400   0.10080115     0.050350172   -0.29521505     0.0049388224   0.050349908    0.10025581   
     20500   0.10491452     0.052404803   -0.29767522     0.0034613623   0.052404527    0.10309567   
     20600   0.093866029    0.046886081   -0.30025465     0.00027467892  0.04688583     0.094077413  
     20700   0.10032344     0.05011156    -0.30014372     0.0042205822   0.050111286    0.10269911   
     20800   0.10089525     0.050397177   -0.30039289     0.0046480291   0.050396909    0.099853928  
     20900   0.10643965     0.053166607   -0.30017053     0.0048422358   0.053166337    0.10234904   
     21000   0.096982728    0.048442873   -0.30524289     0.0042645604   0.048442606    0.099862048  
     21100   0.10084697     0.050373061   -0.30474469     0.0011800045   0.050372794    0.10070217   
     21200   0.099781108    0.049840664   -0.30536947     0.0026200238   0.049840398    0.099808323  
     21300   0.098382758    0.049142187   -0.30523751     0.0031311166   0.049141918    0.10011299   
     21400   0.10066559     0.050282462   -0.30792363     0.0036225382   0.0502822      0.10105798   
     21500   0.10271457     0.051305925   -0.31330394     0.0048317862   0.051305648    0.10352066   
     21600   0.10336669     0.051631662   -0.31597081     0.0033059169   0.051631399    0.10124131   
     21700   0.10202356     0.050960767   -0.31815857     0.0067842431   0.0509605      0.10146161   
     21800   0.10193441     0.050916237   -0.31867856     0.003410977    0.050915976    0.099543959  
     21900   0.10151687     0.050707676   -0.32167513     0.002907198    0.050707404    0.10166477   
     22000   0.10031765     0.050108666   -0.32131737     0.003139043    0.050108393    0.10178792   
     22100   0.1030979      0.051497399   -0.3215953      0.0022198592   0.051497137    0.099284724  
     22200   0.098405974    0.049153784   -0.32683072     0.0038425863   0.049153518    0.099154603  
     22300   0.10547993     0.052687224   -0.33112195     0.0021489838   0.052686953    0.10278985   
     22400   0.10459004     0.052242727   -0.33471977     0.0025884285   0.052242453    0.10305777   
     22500   0.10223858     0.051068172   -0.33492414     0.00019335627  0.051067905    0.10153379   
     22600   0.099058724    0.049479832   -0.33677093     0.0051338291   0.049479566    0.099591447  
     22700   0.1046409      0.052268127   -0.33981846     0.0030032443   0.05226786     0.10224951   
     22800   0.096856544    0.048379844   -0.34022389     0.0046544195   0.048379578    0.09962267   
     22900   0.10569605     0.052795176   -0.34558178     0.0012255919   0.052794906    0.10256738   
     23000   0.10540992     0.052652257   -0.34521812     0.0016865721   0.052651982    0.1051405    
     23100   0.10095976     0.0504294     -0.34489215     0.0019083062   0.050429134    0.099212086  
     23200   0.098966086    0.04943356    -0.34728444     0.0027800515   0.049433302    0.098475831  
     23300   0.095951826    0.047927937   -0.34798474     0.0013963502   0.047927674    0.096868654  
     23400   0.10057128     0.050235354   -0.34825572     0.0029976816   0.050235083    0.10095573   
     23500   0.099851177    0.049875663   -0.34777283     0.0038903316   0.049875404    0.098640336  
     23600   0.10577544     0.052834832   -0.35072936     0.0036528466   0.052834565    0.10298996   
     23700   0.10221125     0.051054518   -0.35331269     0.0036180554   0.051054242    0.10162994   
     23800   0.10131831     0.050608496   -0.35333238     0.0023012144   0.050608228    0.10122243   
     23900   0.10255928     0.051228361   -0.35880332     0.0029676745   0.051228091    0.10252073   
     24000   0.099453325    0.049676936   -0.35914994     0.0023907682   0.049676669    0.099697413  
     24100   0.10307225     0.05148459    -0.3612881      0.0018513314   0.051484314    0.10257223   
     24200   0.097568168    0.0487353     -0.36114089     0.0027393      0.048735039    0.098291424  
     24300   0.10136353     0.050631082   -0.36123164     0.0035685828   0.050630816    0.099958028  
     24400   0.10582753     0.052860852   -0.36624203     0.0032262896   0.052860581    0.10142166   
     24500   0.10175264     0.050825443   -0.36936052     0.00052198119  0.050825171    0.10135244   
     24600   0.10050832     0.050203907   -0.36938023     0.0045980455   0.050203631    0.10339227   
     24700   0.097717267    0.048809775   -0.36948679     0.0024329449   0.048809507    0.10003935   
     24800   0.098431757    0.049166663   -0.36975712     0.0012786648   0.049166405    0.09799745   
     24900   0.10074375     0.050321506   -0.3723757      0.0047058067   0.050321233    0.10094035   
     25000   0.097460192    0.048681366   -0.37198282     0.0026038789   0.048681107    0.098199291  
     25100   0.09856754     0.049234486   -0.37199028     0.0022254911   0.049234219    0.099231913  
     25200   0.10307561     0.051486269   -0.37488924     0.0051956993   0.051486002    0.10097247   
     25300   0.10905934     0.054475142   -0.3746752      0.0032163425   0.054474873    0.1032706    
     25400   0.098186248    0.049044031   -0.37723423     0.0047592406   0.04904376     0.10085856   
     25500   0.10507933     0.052487124   -0.37788047     0.0035638172   0.052486847    0.10287389   
     25600   0.097198518    0.04855066    -0.3774082      0.0033102131   0.048550388    0.098942956  
     25700   0.10709488     0.053493893   -0.38018811     0.0020003721   0.053493615    0.10412279   
     25800   0.10269104     0.051294175   -0.38243908     0.0028481523   0.051293903    0.1030274    
     25900   0.10168858     0.050793447   -0.38204042     0.0055356539   0.050793179    0.1007057    
     26000   0.10041273     0.050156156   -0.38487862     0.0050594864   0.050155888    0.1005824    
     26100   0.099696542    0.049798423   -0.38535272     0.0013606522   0.049798158    0.099036028  
     26200   0.10239778     0.051147692   -0.38725729     0.0033001679   0.051147421    0.10074053   
     26300   0.094390997    0.047148303   -0.38800141     0.00436638     0.047148043    0.09658181   
     26400   0.10207381     0.05098587    -0.3875929      0.00308544     0.050985606    0.099830445  
     26500   0.09566979     0.04778706    -0.396043       0.0022568231   0.047786798    0.098340229  
     26600   0.099135548    0.049518206   -0.39845003     0.0023441514   0.049517936    0.099896871  
     26700   0.10096818     0.050433608   -0.39849234     0.0049216956   0.050433342    0.099831655  
     26800   0.10461212     0.052253755   -0.39890795     0.0036319919   0.05225349     0.10228584   
     26900   0.10096232     0.050430678   -0.40075859     0.0007349946   0.050430408    0.099815866  
     27000   0.10036105     0.050130346   -0.40115889     0.0026790462   0.050130068    0.10254544   
     27100   0.096149594    0.048026722   -0.40670559     0.0043560525   0.048026459    0.097103608  
     27200   0.10259658     0.051246992   -0.41159031     0.0017834909   0.051246721    0.10178532   
     27300   0.098553627    0.049227537   -0.41228971     0.0035694551   0.049227275    0.09962232   
     27400   0.097910162    0.048906126   -0.41486296     0.0027511921   0.048905864    0.097745753  
     27500   0.097460586    0.048681563   -0.41407507     0.0033919033   0.048681293    0.10036303   
     27600   0.099210669    0.049555729   -0.42020893     0.0034056336   0.049555465    0.099422573  
     27700   0.10205306     0.050975502   -0.42769696     0.0028615102   0.050975228    0.10283865   
     27800   0.095378137    0.047641379   -0.42760214     0.0041800451   0.047641117    0.098114834  
     27900   0.10218967     0.051043738   -0.43304219     0.0020857365   0.051043468    0.1010615    
     28000   0.10078249     0.050340854   -0.43317501     0.0047814408   0.050340582    0.10113927   
     28100   0.10382357     0.051859872   -0.43296336     0.0024668262   0.051859608    0.099973148  
     28200   0.1010709      0.050484917   -0.43574607     0.0030876786   0.050484646    0.10090157   
     28300   0.1012334      0.050566084   -0.44060783     0.0055460892   0.050565816    0.099887113  
     28400   0.10206657     0.050982252   -0.44112807     0.0034953597   0.050981983    0.10114624   
     28500   0.10256802     0.051232725   -0.44109406     0.0024812672   0.051232457    0.10052134   
     28600   0.10127221     0.050585468   -0.44113777     0.0030696082   0.050585205    0.098814583  
     28700   0.098761302    0.049331271   -0.44500509     0.0032881779   0.049331009    0.097480227  
     28800   0.10215596     0.051026902   -0.4516057      0.0044045467   0.051026635    0.10139725   
     28900   0.099804262    0.049852229   -0.45198904     0.0035483625   0.049851973    0.097690172  
     29000   0.10082045     0.050359817   -0.45430874     0.0020618843   0.050359553    0.10052965   
     29100   0.10011445     0.05000717    -0.4545992      0.0044958184   0.050006906    0.09909894   
     29200   0.10369225     0.051794279   -0.45930584     0.0022080102   0.051794009    0.10090199   
     29300   0.10034973     0.050124692   -0.45991193     0.00086384157  0.050124425    0.10114346   
     29400   0.095307039    0.047605866   -0.45956539     0.0022131268   0.047605601    0.098907742  
     29500   0.099841788    0.049870973   -0.46521135     0.00067353423  0.049870715    0.099247247  
     29600   0.10166641     0.050782372   -0.46780929     0.0047207911   0.050782102    0.10090268   
     29700   0.10419769     0.052046744   -0.47295751     0.0033418429   0.052046467    0.10273855   
     29800   0.10630064     0.053097172   -0.47332109     0.003148713    0.053096893    0.1054108    
     29900   0.1000605      0.04998022    -0.47273513     0.0029176512   0.049979951    0.10185554   
     30000   0.1060871      0.052990509   -0.47520697     0.0042546526   0.052990235    0.10243622   
     30100   0.098542431    0.049221944   -0.47751623     0.0046913549   0.049221689    0.097807114  
     30200   0.10367741     0.051786868   -0.47859845     0.0047298113   0.051786603    0.1010374    
     30300   0.098706401    0.049303847   -0.47838844     0.0034522923   0.049303577    0.10022992   
     30400   0.098535974    0.049218719   -0.48062153     0.0042146442   0.049218445    0.10093728   
     30500   0.10218071     0.051039264   -0.4863305      0.003442444    0.051038991    0.10150517   
     30600   0.10230155     0.051099623   -0.48874658     0.0034611057   0.051099354    0.10057595   
     30700   0.10051099     0.050205241   -0.48861283     0.0037005023   0.050204965    0.10177353   
     30800   0.098261898    0.049081818   -0.48908823     0.0037160401   0.049081555    0.10013572   
     30900   0.099264356    0.049582546   -0.48906825     0.0039702378   0.04958228     0.098969992  
     31000   0.097997477    0.04894974    -0.49141222     0.0021818854   0.048949474    0.099245678  
     31100   0.098509547    0.049205519   -0.49152389     0.0035450081   0.049205249    0.10148627   
     31200   0.098701066    0.049301182   -0.49420098     0.0032369489   0.049300922    0.098558381  
     31300   0.10119564     0.050547224   -0.49479775     0.0033770264   0.050546957    0.10011488   
     31400   0.10163588     0.050767121   -0.49426349     0.0044816592   0.050766842    0.10250889   
     31500   0.10244147     0.051169512   -0.49400302     0.0017132088   0.051169248    0.10017195   
     31600   0.1002308      0.050065287   -0.49407382     0.0052491674   0.050065019    0.10048302   
     31700   0.10269477     0.051296036   -0.49694606     0.0033227496   0.051295774    0.10016852   
     31800   0.10063333     0.050266347   -0.49953207     0.0046408631   0.050266074    0.10198756   
     31900   0.10050581     0.050202655   -0.49918185     0.005215672    0.050202392    0.099608515  
     32000   0.10160373     0.050751061   -0.49929108     0.0039388049   0.050750791    0.099708969  
     32100   0.10085493     0.050377037   -0.4993243      0.0019131655   0.05037677     0.099667396  
     32200   0.10050248     0.050200987   -0.49990245     0.0043646627   0.050200719    0.10063724   
     32300   0.1003249      0.050112289   -0.49957309     0.0030731997   0.050112024    0.099456218  
     32400   0.1013081      0.050603396   -0.49938954     0.0029498977   0.050603123    0.10255502   
     32500   0.10001225     0.049956118   -0.49907692     0.002641428    0.04995585     0.099734497  
     32600   0.098276346    0.049089035   -0.49971018     0.0024627611   0.049088773    0.09876577   
     32700   0.10014289     0.050021372   -0.50208101     0.0034299323   0.050021105    0.10059616   
     32800   0.10107466     0.05048679    -0.50226201     0.0019276675   0.050486527    0.099452665  
     32900   0.10113946     0.050519162   -0.50448053     0.0045282116   0.050518886    0.10137141   
     33000   0.10217944     0.05103863    -0.50451792     0.0045562939   0.051038366    0.10011009   
     33100   0.10346271     0.051679625   -0.50494283     0.0037299498   0.051679365    0.099007342  
     33200   0.097327674    0.048615173   -0.50480202     0.0024345195   0.048614906    0.099587821  
     33300   0.10039159     0.050145599   -0.50491566     0.0023026195   0.050145336    0.098526461  
     33400   0.10137395     0.050636289   -0.50453927     0.0017622446   0.050636019    0.10079109   
     33500   0.099616596    0.04975849    -0.50486237     0.0056951836   0.049758226    0.099477826  
     33600   0.10400252     0.051949259   -0.50540171     0.0045307695   0.051948982    0.1039077    
     33700   0.10113109     0.050514981   -0.50724367     0.0039742786   0.050514706    0.10312866   
     33800   0.10377687     0.051836549   -0.51035443     0.0020632365   0.051836279    0.10207578   
     33900   0.10246955     0.051183539   -0.51024366     0.0042658617   0.051183268    0.10201877   
     34000   0.1011616      0.050530218   -0.50978364     0.0032508967   0.050529955    0.099385651  
     34100   0.10114163     0.050520245   -0.51285685     0.0011038995   0.050519982    0.099925941  
     34200   0.099239265    0.049570013   -0.51554088     0.0022764899   0.04956975     0.099277852  
     34300   0.099044746    0.049472851   -0.5156304      0.0033018569   0.049472585    0.098930876  
     34400   0.099175361    0.049538093   -0.51535131     0.0034363077   0.049537822    0.10036678   
     34500   0.097734553    0.048818409   -0.51537963     0.0018446025   0.048818146    0.09898264   
     34600   0.10054859     0.050224021   -0.51550476     0.0043631592   0.050223756    0.098902714  
     34700   0.10154663     0.050722544   -0.51805657     0.0065142351   0.050722282    0.10055581   
     34800   0.1001115      0.050005692   -0.51781315     0.0040176873   0.050005421    0.10261746   
     34900   0.1011422      0.050520527   -0.52299127     0.0014167063   0.050520251    0.10209204   
     35000   0.0999441      0.049922078   -0.52836133     0.0039692305   0.049921811    0.099737047  
     35100   0.10199964     0.05094882    -0.52882542     0.0040691067   0.050948556    0.10108016   
     35200   0.099486743    0.049693628   -0.53397799     0.0037140365   0.049693363    0.09910563   
     35300   0.100894       0.050396551   -0.53901151     0.0038310445   0.050396282    0.1005252    
     35400   0.097707899    0.048805096   -0.53863208     0.0014723122   0.048804833    0.097881193  
     35500   0.10127386     0.050586294   -0.53953047     0.003683836    0.050586025    0.099257014  
     35600   0.097209741    0.048556266   -0.54178369     0.00055639526  0.048556001    0.098452133  
     35700   0.10267596     0.051286641   -0.54192199     0.0029504705   0.051286366    0.10175889   
     35800   0.099758497    0.049829369   -0.54478641     0.0037101963   0.049829101    0.10041281   
     35900   0.10108204     0.050490477   -0.5444732      0.0026211692   0.050490212    0.10015715   
     36000   0.10213976     0.051018812   -0.54465545     0.0015962146   0.051018531    0.10462986   
     36100   0.099660721    0.04978053    -0.54460358     0.0035260376   0.049780273    0.097639902  
     36200   0.098498436    0.049199969   -0.54738092     0.0044243932   0.049199713    0.097796235  
     36300   0.10045667     0.050178108   -0.54722524     0.003574195    0.050177844    0.099459638  
     36400   0.1017443      0.050821276   -0.55034632     0.0025407223   0.050821017    0.10001321   
     36500   0.093929075    0.046917573   -0.55241314     0.0015414799   0.046917312    0.096303641  
     36600   0.10255322     0.051225331   -0.55265467     0.0016346931   0.051225061    0.10116055   
     36700   0.10228511     0.051091412   -0.55251405     0.0012712032   0.05109114     0.10157037   
     36800   0.10145283     0.05067569    -0.55547889     0.0041056708   0.050675418    0.10217574   
     36900   0.097615641    0.048759013   -0.555786       0.0025491274   0.048758745    0.10014167   
     37000   0.10262287     0.051260124   -0.55797686     0.0031966357   0.051259861    0.10017912   
     37100   0.097696348    0.048799326   -0.56073263     0.0048570911   0.048799058    0.098665731  
     37200   0.10407507     0.051985495   -0.56271527     5.8690314e-05  0.051985223    0.10197371   
     37300   0.096541071    0.048222265   -0.56322817     0.0035273065   0.04822201     0.096603842  
     37400   0.10181098     0.050854584   -0.56605894     0.003273237    0.05085431     0.10114664   
     37500   0.10150732     0.050702907   -0.56916539     0.0032557764   0.050702644    0.099448334  
     37600   0.095977672    0.047940847   -0.56824456     0.0025654395   0.047940582    0.09837949   
     37700   0.095090438    0.047497674   -0.57081904     0.0041511699   0.047497412    0.097021169  
     37800   0.097273873    0.0485883     -0.57415117     0.001382053    0.048588035    0.099273738  
     37900   0.1040836      0.05198976    -0.57398887     0.0061626948   0.05198949     0.10347877   
     38000   0.098767699    0.049334466   -0.57400332     0.0030321487   0.049334189    0.1014588    
     38100   0.099859396    0.049879769   -0.57899442     0.0027241306   0.049879509    0.098841041  
     38200   0.097802883    0.04885254    -0.5797414      0.00069466697  0.048852271    0.099964392  
     38300   0.10621133     0.053052558   -0.57921926     0.0036890806   0.053052284    0.10453955   
     38400   0.10436126     0.052128451   -0.58186475     0.0038393829   0.052128177    0.1012346    
     38500   0.10194474     0.050921396   -0.5899903      0.0029334057   0.050921126    0.1013218    
     38600   0.10048241     0.050190964   -0.59012548     0.002475631    0.050190702    0.098962685  
     38700   0.1013092      0.050603948   -0.59297899     0.0036240473   0.05060368     0.10217737   
     38800   0.098149818    0.049025834   -0.59550199     0.000168164    0.049025572    0.098078739  
     38900   0.099787371    0.049843792   -0.60092387    -0.00028022604  0.049843522    0.10163355   
     39000   0.10312837     0.051512622   -0.6060905      0.0023798424   0.051512349    0.10338859   
     39100   0.097706762    0.048804528   -0.60556751     0.0046073379   0.048804261    0.10015727   
     39200   0.099109034    0.049504963   -0.6089573      0.0046872997   0.049504704    0.098980544  
     39300   0.10109129     0.0504951     -0.60853267     0.0025605758   0.050494838    0.098502534  
     39400   0.096416325    0.048159955   -0.61051525     0.0032621459   0.048159693    0.09779324   
     39500   0.097415675    0.04865913    -0.61111711     0.0033431468   0.048658864    0.099349896  
     39600   0.098523638    0.049212557   -0.61661258     0.0016187691   0.049212288    0.10037985   
     39700   0.099906449    0.049903271   -0.6163836      0.0033045772   0.049902995    0.10158738   
     39800   0.09919293     0.049546869   -0.61653713     0.005229501    0.049546606    0.099302344  
     39900   0.10163453     0.050766447   -0.61861025     0.0035279583   0.050766173    0.10245559   
     40000   0.099529443    0.049714957   -0.61893984    -0.0010236125   0.049714697    0.098860422  
     40100   0.095242133    0.047573446   -0.62150321     0.0023325238   0.047573187    0.09643389   
     40200   0.098858232    0.049379687   -0.62197048     0.0050215162   0.04937943     0.098970403  
     40300   0.10332214     0.051609411   -0.62385981     0.0037041414   0.051609143    0.10062085   
     40400   0.094106906    0.047006399   -0.62478902     0.0034615767   0.047006124    0.099768348  
     40500   0.097450148    0.048676349   -0.62464093     0.0039467427   0.048676086    0.099277708  
     40600   0.10397364     0.051934834   -0.62374931     0.0037517073   0.051934561    0.10094096   
     40700   0.099622967    0.049761672   -0.62439155     0.0019725534   0.049761405    0.10014604   
     40800   0.10400181     0.051948906   -0.62455478     0.0034455637   0.05194863     0.10439991   
     40900   0.099787804    0.049844008   -0.62474183     0.00054730284  0.04984375     0.10009337   
     41000   0.10269794     0.051297622   -0.62756062     0.003284477    0.051297352    0.10163839   
     41100   0.10293422     0.051415645   -0.62679135     0.003549696    0.051415369    0.10252068   
     41200   0.1018945      0.050896304   -0.63198631     0.0062053812   0.050896042    0.10013945   
     41300   0.10622484     0.053059307   -0.6325987     -0.00054785066  0.053059035    0.10208465   
     41400   0.10305705     0.051476997   -0.63185829     0.005189909    0.051476719    0.10320275   
     41500   0.10395027     0.051923161   -0.63497415     0.0039866722   0.051922895    0.10085208   
     41600   0.10036488     0.050132256   -0.63476291     0.0020020243   0.050132001    0.096466328  
     41700   0.096491533    0.04819752    -0.63739793     0.0041215735   0.048197267    0.095489769  
     41800   0.10291283     0.051404956   -0.63835128     0.0031694618   0.051404689    0.10180366   
     41900   0.10064207     0.050270714   -0.63736696     0.0045522891   0.05027045     0.10034134   
     42000   0.10116934     0.050534087   -0.63773816     0.0051067739   0.050533812    0.10248272   
     42100   0.099714967    0.049807626   -0.63791221     0.0010584739   0.049807358    0.099500325  
     42200   0.099890179    0.049895144   -0.63754461     0.0043945749   0.049894872    0.10094443   
     42300   0.10545352     0.052674033   -0.63751062     0.0035958727   0.052673759    0.10334397   
     42400   0.10131201     0.050605348   -0.63746127     7.9768337e-05  0.050605077    0.10017323   
     42500   0.10106        0.05047947    -0.63760301     0.0044379074   0.050479194    0.10276185   
     42600   0.097941681    0.04892187    -0.6398504      0.0013623642   0.048921595    0.100735     
     42700   0.10329986     0.051598279   -0.64019703     0.0057940526   0.051598012    0.10135007   
     42800   0.098926276    0.049413675   -0.64532908     0.0032689936   0.049413409    0.099894391  
     42900   0.10488247     0.052388793   -0.64772382     0.0028258147   0.052388521    0.10358881   
     43000   0.10684095     0.053367054   -0.64984082     0.005294114    0.053366778    0.10424162   
     43100   0.099053353    0.04947715    -0.65599551     0.0060438958   0.049476886    0.09882665   
     43200   0.10055374     0.050226592   -0.65851936     0.0045829956   0.05022633     0.098256843  
     43300   0.099957544    0.049928793   -0.65880678     0.0016926921   0.049928527    0.098441986  
     43400   0.099467576    0.049684054   -0.65894734    -0.00052054578  0.04968379     0.099235164  
     43500   0.1019729      0.050935465   -0.65903505     0.0037987759   0.050935192    0.10101143   
     43600   0.097335234    0.048618949   -0.66138991     0.0011323577   0.048618685    0.098131981  
     43700   0.097743461    0.048822859   -0.66136087     0.0061580207   0.048822601    0.096922658  
     43800   0.099993873    0.049946939   -0.66149114     0.0026752405   0.049946676    0.10015509   
     43900   0.09699087     0.04844694    -0.66203351     0.0058628639   0.048446674    0.099345095  
     44000   0.095308327    0.047606509   -0.66118324     0.0031527552   0.047606249    0.09731716   
     44100   0.10009144     0.049995673   -0.66396902     0.005009208    0.049995409    0.1000095    
     44200   0.10403673     0.051966346   -0.66603179     0.0030755298   0.051966085    0.10057929   
     44300   0.1023541      0.051125873   -0.66651255     0.0035952463   0.051125614    0.10065758   
     44400   0.097526993    0.048714733   -0.6697256      0.0039649619   0.048714459    0.10076432   
     44500   0.10306551     0.051481221   -0.67249033     0.0044784328   0.051480962    0.09900533   
     44600   0.1000492      0.049974576   -0.67269173     0.0027425452   0.049974305    0.10116157   
     44700   0.099035358    0.049468161   -0.67785766     0.002805815    0.049467884    0.10255953   
     44800   0.098193983    0.049047894   -0.67763698     0.0025526446   0.049047633    0.098577426  
     44900   0.09910363     0.049502263   -0.67741785     0.0019576916   0.049501992    0.099739769  
     45000   0.098796692    0.049348948   -0.67770519     0.002363967    0.049348682    0.10037747   
     45100   0.1029132      0.051405145   -0.67729655     0.003061282    0.051404874    0.10126754   
     45200   0.096789978    0.048346594   -0.67769726     0.0034032955   0.048346327    0.099156703  
     45300   0.097973972    0.048937999   -0.6800937      0.002243849    0.048937733    0.099840892  
     45400   0.099794003    0.049847104   -0.68062103     0.0021332444   0.049846828    0.10188171   
     45500   0.097513207    0.048707847   -0.6806463     -0.0011460007   0.04870758     0.10008957   
     45600   0.09901544     0.049458213   -0.67999364     0.0033575295   0.049457946    0.099944155  
     45700   0.096371625    0.048137627   -0.68279166     0.0051030397   0.048137367    0.098917091  
     45800   0.098950651    0.04942585    -0.68346927     0.0032792251   0.049425584    0.098996422  
     45900   0.10369367     0.051794986   -0.68255936     0.0038213342   0.051794708    0.10318129   
     46000   0.10376671     0.051831472   -0.68824366     0.0040446788   0.051831198    0.10277534   
     46100   0.09950881     0.049704651   -0.6968452      0.0024033042   0.049704384    0.10063969   
     46200   0.095165771    0.047535302   -0.69628024     0.0051755545   0.047535038    0.096936618  
     46300   0.10239181     0.051144711   -0.69848699     0.0023375356   0.051144445    0.1004118    
     46400   0.10197845     0.050938235   -0.69902275     0.0054789912   0.050937972    0.09983991   
     46500   0.10550128     0.052697889   -0.69860597     0.0043330906   0.052697616    0.10221125   
     46600   0.10143652     0.050667542   -0.70358575     0.0047874932   0.05066728     0.10014702   
     46700   0.097472912    0.04868772    -0.70665477     0.0045506724   0.04868745     0.099970455  
     46800   0.098925678    0.049413376   -0.70697591     0.0032026983   0.049413114    0.099046399  
     46900   0.09907217     0.049486549   -0.7066453      0.0060275468   0.049486282    0.099817623  
     47000   0.10189917     0.050898636   -0.7071127      0.0022586136   0.050898364    0.1004621    
     47100   0.099203883    0.04955234    -0.70658487     0.0042957553   0.049552081    0.097848184  
     47200   0.098975654    0.049438339   -0.7069588      0.0048423552   0.049438066    0.10160652   
     47300   0.098923316    0.049412196   -0.70907745     0.002825262    0.049411933    0.099206633  
     47400   0.10050482     0.050202159   -0.71184233     0.0041941628   0.050201902    0.097620018  
     47500   0.10118431     0.050541563   -0.7164105      0.0039540054   0.050541296    0.099333607  
     47600   0.097919702    0.048910891   -0.72286552     0.0047777292   0.048910632    0.098344824  
     47700   0.10230839     0.051103041   -0.72451569    -0.00084494507  0.051102765    0.10238994   
     47800   0.10105263     0.050475789   -0.72737661     0.0048220381   0.050475519    0.10079125   
     47900   0.10579631     0.052845256   -0.72820887     0.0039219059   0.052844981    0.10320922   
     48000   0.10095224     0.050425646   -0.72763219     0.00073860776  0.05042538     0.10059101   
     48100   0.097936938    0.0489195     -0.72804943     0.0047586453   0.048919241    0.098868829  
     48200   0.099674862    0.049787594   -0.72862523     0.0054626954   0.04978733     0.10017344   
     48300   0.097809974    0.048856082   -0.72722752     0.0029091228   0.04885582     0.097816378  
     48400   0.096570873    0.048237151   -0.72797228     0.0058954284   0.048236886    0.099017886  
     48500   0.10719366     0.053543232   -0.72756641     0.0018943305   0.053542955    0.10249153   
     48600   0.10128562     0.050592169   -0.73078253     0.0051038379   0.050591894    0.10178578   
     48700   0.099848637    0.049874394   -0.73104366     0.0054625768   0.049874133    0.099978867  
     48800   0.098483549    0.049192533   -0.7307242      0.0012971697   0.049192271    0.098651876  
     48900   0.096291479    0.048097594   -0.73048837     0.0028850857   0.04809733     0.097300319  
     49000   0.10002333     0.049961653   -0.73353789     0.0040800433   0.04996138     0.099961619  
     49100   0.1005621      0.050230768   -0.73273264     0.0058983969   0.050230515    0.09793434   
     49200   0.10283962     0.051368392   -0.73555628     0.00032117811  0.051368128    0.098718278  
     49300   0.10131282     0.050605753   -0.74128592     0.0042594118   0.050605484    0.10164761   
     49400   0.10368564     0.051790976   -0.74692719     0.0045054931   0.051790696    0.10464696   
     49500   0.10096267     0.050430851   -0.74653239    -2.0978688e-05  0.050430585    0.10003025   
     49600   0.098311554    0.049106621   -0.74649383     0.0057012426   0.049106353    0.098662571  
     49700   0.10146342     0.050680981   -0.74616647     0.0023647696   0.050680716    0.099109184  
     49800   0.10919314     0.054541974   -0.75123205     0.00028465315  0.054541696    0.10501412   
     49900   0.10431807     0.052106875   -0.75506874     0.0028561424   0.052106609    0.10054055   
     50000   0.10107048     0.050484703   -0.75510596     0.00081581018  0.05048443     0.1020126    
     50100   0.097381649    0.048642134   -0.75766906     0.0039353947   0.048641871    0.098519222  
     50200   0.098587204    0.049244309   -0.76030839     0.0057572372   0.049244046    0.099063215  
     50300   0.098680328    0.049290824   -0.75978723     0.0037559667   0.049290561    0.09934233   
     50400   0.096427985    0.048165779   -0.76222292     0.0028150057   0.048165524    0.097034392  
     50500   0.10088426     0.050391689   -0.76496258     0.004200374    0.050391424    0.10020506   
     50600   0.10102403     0.050461502   -0.76530057     0.0058296531   0.05046123     0.10201217   
     50700   0.10004457     0.04997226    -0.76427375     0.0027656216   0.049971997    0.10081653   
     50800   0.10198967     0.050943839   -0.7646887     -0.00046431768  0.050943562    0.10266514   
     50900   0.094092797    0.046999352   -0.76510004     0.0048188521   0.046999089    0.097523839  
     51000   0.097805884    0.048854039   -0.76488435     0.0029418568   0.048853774    0.099794248  
     51100   0.10305122     0.051474086   -0.76485485     0.0044539609   0.051473813    0.10223568   
     51200   0.10141277     0.050655679   -0.76771331     0.00041418305  0.050655412    0.10023899   
     51300   0.099827313    0.049863743   -0.77065678    -0.0011618852   0.049863474    0.1007215    
     51400   0.099322848    0.049611763   -0.76968046     0.0020436014   0.049611506    0.096910793  
     51500   0.099211596    0.049556192   -0.77361643     0.00016988792  0.049555929    0.099192881  
     51600   0.10136341     0.050631021   -0.77855504     0.0034180634   0.050630751    0.10136117   
     51700   0.10273936     0.051318308   -0.77763242     0.005383855    0.051318044    0.099111617  
     51800   0.10174556     0.050821909   -0.78184356     0.003166585    0.050821642    0.10040548   
     51900   0.09906954     0.049485235   -0.78166692     0.0017824761   0.049484965    0.10050473   
     52000   0.10119868     0.050548741   -0.78081313     0.0032697105   0.050548471    0.10115189   
     52100   0.10092875     0.050413909   -0.78107678     0.0031538184   0.05041364     0.099882575  
     52200   0.10269657     0.051296936   -0.78935368     0.0036325157   0.051296663    0.10119778   
     52300   0.098369696    0.049135663   -0.79187079     0.0053622511   0.049135405    0.097547553  
     52400   0.10822332     0.054057546   -0.79749972     0.0047298444   0.054057267    0.10632116   
     52500   0.098629445    0.049265408   -0.79724673     0.0010085702   0.049265145    0.09941975   
     52600   0.10314685     0.05152185    -0.79650846     0.0027997376   0.05152158     0.10261721   
     52700   0.098849714    0.049375432   -0.79954924     0.0016769425   0.049375172    0.097643022  
     52800   0.10428845     0.05209208    -0.80455279     0.0024557602   0.052091808    0.10285164   
     52900   0.10008077     0.049990344   -0.80487964     0.0016490614   0.049990081    0.09907938   
     53000   0.10131601     0.050607346   -0.8049814      0.0011975421   0.050607079    0.10072112   
     53100   0.1022682      0.051082966   -0.80783784     0.00042673279  0.051082696    0.10178629   
     53200   0.10067635     0.050287836   -0.80723629     0.0048635254   0.05028757     0.10130855   
     53300   0.10307419     0.051485556   -0.80815462     0.00057483316  0.051485296    0.099633517  
     53400   0.099042883    0.04947192    -0.81011211     0.0031230473   0.049471655    0.099702741  
     53500   0.10105418     0.050476563   -0.81012417     0.0027650858   0.050476287    0.1010344    
     53600   0.10086279     0.050380963   -0.813003       0.0011703386   0.050380694    0.10083576   
     53700   0.10680143     0.053347314   -0.81497457     0.0028905451   0.053347043    0.10189393   
     53800   0.10226681     0.051082274   -0.81546731     0.0049414521   0.051082009    0.10030484   
     53900   0.098301245    0.049101472   -0.82052897     0.0026447419   0.049101209    0.097827584  
     54000   0.099677485    0.049788904   -0.82363253     0.00056085031  0.04978864     0.098149     
     54100   0.099051985    0.049476466   -0.82641403     0.00080002031  0.049476198    0.10030774   
     54200   0.098717389    0.049309336   -0.82626983     0.0026012895   0.049309075    0.098005746  
     54300   0.099940483    0.049920271   -0.82666156     0.0039221133   0.049919998    0.10173018   
     54400   0.098803113    0.049352155   -0.82896362     0.005232841    0.049351895    0.099063433  
     54500   0.10575255     0.0528234     -0.82854404    -0.00050981668  0.052823126    0.10288104   
     54600   0.098909926    0.049405508   -0.8285899      0.0021311262   0.049405239    0.099265995  
     54700   0.104039       0.051967482   -0.82874681     0.0035320587   0.051967211    0.10175542   
     54800   0.0997044      0.049802348   -0.82841407     0.0037487545   0.049802093    0.097477476  
     54900   0.095639247    0.047771804   -0.82829516    -0.0021736476   0.047771537    0.098046237  
     55000   0.10045022     0.050174886   -0.8313916      0.0025777873   0.050174615    0.10072619   
     55100   0.099686439    0.049793376   -0.83057743    -0.00074409635  0.049793101    0.10210241   
     55200   0.099335254    0.049617959   -0.83113458     0.0035746144   0.049617694    0.09885625   
     55300   0.10047861     0.050189066   -0.83165783     0.004365296    0.050188795    0.10173401   
     55400   0.10055012     0.050224786   -0.83193269    -0.0012690737   0.050224516    0.10240966   
     55500   0.094269888    0.047087809   -0.83134966     0.00087448693  0.047087545    0.097094966  
     55600   0.098806137    0.049353665   -0.83386222     0.0032713123   0.049353401    0.099287786  
     55700   0.10054462     0.050222037   -0.8363649      0.0021531757   0.05022176     0.10119545   
     55800   0.099626701    0.049763537   -0.83691082     0.0016710044   0.049763276    0.097515424  
     55900   0.099217997    0.04955939    -0.83697888     0.0019502353   0.049559126    0.09987898   
     56000   0.093808956    0.046857574   -0.83719238     0.0017392888   0.046857316    0.096855805  
     56100   0.097107718    0.048505305   -0.83974741     0.0043622202   0.048505037    0.098629602  
     56200   0.10210139     0.050999644   -0.83950735     0.00051143756  0.050999369    0.10146825   
     56300   0.097323754    0.048613215   -0.83940941     0.0023972054   0.048612947    0.10015585   
     56400   0.10046535     0.050182445   -0.83972297     0.0043784295   0.050182177    0.099208738  
     56500   0.097126025    0.04851445    -0.83982543     0.0023727965   0.048514178    0.099973121  
     56600   0.099230842    0.049565806   -0.83916927     0.0009167694   0.049565542    0.098019549  
     56700   0.10091508     0.050407082   -0.83895787     0.0026457171   0.050406818    0.10113188   
     56800   0.1018685      0.050883318   -0.84217591     0.0033374354   0.050883045    0.10034656   
     56900   0.10019193     0.050045868   -0.84228017     0.0025360728   0.050045603    0.099541424  
     57000   0.10000788     0.049953937   -0.84410954     0.00068480868  0.049953671    0.098390155  
     57100   0.10052917     0.050214322   -0.84755384     0.0037807959   0.050214061    0.099971656  
     57200   0.098816353    0.049358768   -0.8500637      0.0067563286   0.049358498    0.10022634   
     57300   0.1015801      0.050739258   -0.85215949     0.0051249311   0.050738983    0.10261836   
     57400   0.10158626     0.050742336   -0.85238441     0.00010699978  0.050742072    0.10158596   
     57500   0.10419316     0.052044483   -0.86112148     0.0041878497   0.052044203    0.10355674   
     57600   0.099961981    0.04993101    -0.86073138     0.0051708063   0.049930732    0.10156332   
     57700   0.10062501     0.050262192   -0.8601201      0.0022875466   0.050261918    0.10170786   
     57800   0.10517299     0.052533911   -0.86125632     0.0018762272   0.052533641    0.10202685   
     57900   0.10105451     0.050476728   -0.86073599     0.003846071    0.050476463    0.099271966  
     58000   0.10109547     0.050497185   -0.86107709     0.0028294057   0.05049692     0.098883246  
     58100   0.096818313    0.048360747   -0.86050434     0.0021331634   0.048360479    0.099147957  
     58200   0.10138813     0.050643372   -0.86395068     0.0057992919   0.050643101    0.1013297    
     58300   0.10166691     0.05078262    -0.86607576     0.005001331    0.050782358    0.10063537   
     58400   0.10025127     0.05007551    -0.86556922     0.0055147091   0.050075237    0.10096974   
     58500   0.099349449    0.04962505    -0.86559952     0.0028670183   0.049624776    0.10030999   
     58600   0.1050042      0.052449598   -0.86662158     0.0046677819   0.052449327    0.102657     
     58700   0.10380806     0.051852126   -0.86577014     0.0010525328   0.051851858    0.10161767   
     58800   0.096500195    0.048201848   -0.86655536    -4.2310191e-05  0.048201583    0.099359564  
     58900   0.098762149    0.049331693   -0.86632612     0.00071160834  0.049331419    0.10047366   
     59000   0.10064169     0.050270524   -0.86860812     0.0037801705   0.050270257    0.1010542    
     59100   0.10127149     0.050585108   -0.869145       0.0032689416   0.050584834    0.10275513   
     59200   0.10234962     0.051123633   -0.86880944     0.0015007658   0.051123364    0.10206467   
     59300   0.099265295    0.049583015   -0.86927112     0.0023277235   0.049582742    0.10093931   
     59400   0.096488236    0.048195874   -0.86896468     0.0032670722   0.048195609    0.099399849  
     59500   0.10099786     0.050448429   -0.87121197     0.0044608563   0.050448164    0.099611702  
     59600   0.098893309    0.049397208   -0.8712246      0.0019352547   0.049396947    0.098361689  
     59700   0.10310465     0.051500771   -0.87094721     8.7638916e-05  0.051500495    0.10287071   
     59800   0.10422402     0.0520599     -0.87430109     0.0067898287   0.052059624    0.103374     
     59900   0.1000256      0.049962787   -0.87773183     0.0028936827   0.049962519    0.100365     
     60000   0.096625555    0.048264465   -0.87951611     0.0023319741   0.048264203    0.097906774  
     60100   0.10417733     0.052036574   -0.87932126     0.0041438151   0.052036296    0.10376388   
     60200   0.098229515    0.049065643   -0.87887722     0.0035820086   0.049065373    0.099285014  
     60300   0.1010629      0.050480916   -0.8868452     -0.0014262501   0.050480649    0.10049808   
     60400   0.10137838     0.0506385     -0.88722007     0.0027576649   0.050638235    0.10016437   
     60500   0.099512771    0.049706629   -0.88800335     0.0017664007   0.049706357    0.10082411   
     60600   0.10096168     0.050430357   -0.8894354      0.0018880916   0.050430085    0.10091163   
     60700   0.097265812    0.048584273   -0.88995765     0.0033321977   0.048584005    0.099269965  
     60800   0.10112242     0.050510648   -0.88966601     0.0031110147   0.050510381    0.10020749   
     60900   0.097193975    0.04854839    -0.88977572     0.0029177745   0.048548127    0.097908125  
     61000   0.098618727    0.049260054   -0.89011284     0.0038538328   0.04925979     0.10035625   
     61100   0.098560564    0.049231002   -0.89053827     0.0031865451   0.049230742    0.098422524  
     61200   0.10091353     0.050406309   -0.89236359     0.00082421328  0.050406042    0.10072118   
     61300   0.098880592    0.049390856   -0.89257087     0.0044824294   0.049390601    0.097256584  
     61400   0.098444856    0.049173205   -0.89293355     0.0019216466   0.049172942    0.099962707  
     61500   0.099116389    0.049508636   -0.89561447     0.0010888875   0.049508368    0.10006758   
     61600   0.098318814    0.049110248   -0.89601517     0.0028233038   0.049109982    0.098920898  
     61700   0.10093561     0.050417339   -0.89807571     0.0043289748   0.050417066    0.10246425   
     61800   0.10017193     0.050035879   -0.89837466     0.0059763238   0.050035607    0.10293214   
     61900   0.10405449     0.051975217   -0.89830879     0.0021098981   0.051974942    0.10317361   
     62000   0.099452919    0.049676733   -0.89837375     0.0036113018   0.049676472    0.097457592  
     62100   0.10381431     0.051855246   -0.89781488     0.0031590684   0.051854973    0.1023564    
     62200   0.10031194     0.050105816   -0.89994988     0.0077387307   0.050105551    0.099880999  
     62300   0.10222214     0.051059961   -0.90049311     0.001834037    0.051059693    0.10137922   
     62400   0.10158323     0.050740824   -0.90036502     0.00099407677  0.050740546    0.10371221   
     62500   0.10156046     0.050729452   -0.90564874     0.0026989915   0.050729191    0.098793583  
     62600   0.10328775     0.051592231   -0.90838626     0.005571551    0.051591957    0.1018205    
     62700   0.10116803     0.050533431   -0.91148347     0.0014268727   0.050533162    0.10181101   
     62800   0.10145655     0.050677548   -0.91072539    -0.0014120163   0.050677272    0.1024313    
     62900   0.10204802     0.050972984   -0.91122863     0.0047164535   0.050972714    0.10199521   
     63000   0.10293188     0.051414476   -0.91450095     0.0055332332   0.051414213    0.10076666   
     63100   0.10055488     0.050227161   -0.914631       0.0043756742   0.050226894    0.099461086  
     63200   0.10616238     0.05302811    -0.91484735     0.0056110882   0.053027838    0.10294247   
     63300   0.099870111    0.04988512    -0.91576968    -0.0002435306   0.049884841    0.10301781   
     63400   0.098200877    0.049051338   -0.91894676     0.0041784705   0.049051075    0.098619604  
     63500   0.10292434     0.051410706   -0.91932405     0.00058507344  0.05141043     0.10201979   
     63600   0.10617009     0.053031962   -0.91910864     0.002235639    0.05303169     0.10295844   
     63700   0.10192195     0.050910012   -0.91939464     0.0065788051   0.050909743    0.10040976   
     63800   0.10007115     0.049985541   -0.92253017     0.0021095641   0.049985271    0.0987034    
     63900   0.098184138    0.049042977   -0.92464466     0.002872498    0.049042711    0.098555144  
     64000   0.10061844     0.050258911   -0.92502722     0.0052766698   0.050258651    0.099406974  
     64100   0.10152334     0.050710906   -0.92489076     0.0044603425   0.050710636    0.10336262   
     64200   0.10036248     0.05013106    -0.92480547     0.0032678624   0.050130797    0.099437071  
     64300   0.10041929     0.050159435   -0.92710057     0.0036824674   0.05015917     0.099735791  
     64400   0.10172716     0.050812716   -0.93024342     0.0013102049   0.050812451    0.10039723   
     64500   0.10090765     0.050403373   -0.92940182     0.0028375351   0.050403099    0.10183677   
     64600   0.096314885    0.048109285   -0.92954993     0.00016530938  0.048109016    0.099582375  
     64700   0.097630513    0.048766441   -0.93024613     0.0021944779   0.048766174    0.099785077  
     64800   0.09832225     0.049111964   -0.93037282     0.0018035595   0.049111697    0.099903277  
     64900   0.099630191    0.04976528    -0.92984753     0.0023280132   0.049765013    0.099315137  
     65000   0.096777316    0.048340269   -0.92961375     0.0019923914   0.048340003    0.098154257  
     65100   0.099652556    0.049776452   -0.9304301      0.001521772    0.049776185    0.099667814  
     65200   0.10212692     0.051012399   -0.92966765     0.00072910101  0.051012132    0.10100284   
     65300   0.10479541     0.05234531    -0.93266259     0.0029825639   0.052345045    0.10128121   
     65400   0.095210622    0.047557706   -0.93238043     0.00095355415  0.047557444    0.097661757  
     65500   0.10085528     0.050377212   -0.9326646      0.003910183    0.050376945    0.10073794   
     65600   0.10167429     0.050786307   -0.93379041     0.002960271    0.050786038    0.10175755   
     65700   0.10010345     0.050001674   -0.93198864    -0.0029924276   0.050001404    0.10044634   
     65800   0.099630624    0.049765497   -0.93254808     0.00096223829  0.049765232    0.10007292   
     65900   0.09571482     0.047809553   -0.93746679     0.00055883489  0.047809288    0.098199936  
     66000   0.099644478    0.049772417   -0.93709767     0.002656311    0.049772149    0.10180341   
     66100   0.10211775     0.051007814   -0.94323844     0.0021140824   0.051007543    0.10206123   
     66200   0.10006318     0.049981556   -0.94839416    -0.0011027233   0.049981282    0.10166707   
     66300   0.09911092     0.049505904   -0.95376009     0.0014024151   0.049505641    0.099686462  
     66400   0.10444513     0.052170343   -0.95985172     0.0016619739   0.052170074    0.10224524   
     66500   0.10101639     0.050457687   -0.96205746     0.00068291821  0.050457418    0.099345101  
     66600   0.10226683     0.051082281   -0.96305817     0.0016976719   0.051082004    0.10339826   
     66700   0.099964654    0.049932345   -0.96204606     0.0030269999   0.049932079    0.099077465  
     66800   0.1017113      0.050804795   -0.96183085     0.0028987747   0.050804523    0.10076951   
     66900   0.10157593     0.050737177   -0.96414177     0.0018775025   0.050736908    0.10049831   
     67000   0.10024698     0.050073366   -0.97255235     0.0024229968   0.050073101    0.099230375  
     67100   0.098339664    0.049120662   -0.97198245     0.0045750054   0.049120396    0.098807827  
     67200   0.10092661     0.050412843   -0.97189044     0.0016205212   0.050412578    0.1000209    
     67300   0.10170533     0.050801813   -0.97452117     0.0073451601   0.050801556    0.099373639  
     67400   0.10214008     0.051018969   -0.97489761     0.0038045207   0.051018697    0.10231105   
     67500   0.10338323     0.051639923   -0.97543745     0.00023479457  0.051639647    0.10284034   
     67600   0.099171961    0.049536395   -0.97568325     0.0039307295   0.049536128    0.098775526  
     67700   0.098901877    0.049401488   -0.97486308     0.0039280233   0.049401221    0.09992012   
     67800   0.10006426     0.049982096   -0.97464142    -0.0010495533   0.049981833    0.097922714  
     67900   0.099243258    0.049572007   -0.97496084     0.0059752253   0.049571748    0.099003714  
     68000   0.10080654     0.050352868   -0.97426726     0.003998548    0.050352604    0.099641659  
     68100   0.097142937    0.048522897   -0.97537984     0.0045627552   0.04852263     0.098858081  
     68200   0.100583       0.050241206   -0.97732762     0.0036899535   0.05024094     0.10123402   
     68300   0.099738917    0.049819589   -0.98042028     0.0037080602   0.049819323    0.099473559  
     68400   0.095876219    0.047890171   -0.97959975    -0.0011541195   0.047889911    0.097649454  
     68500   0.10110594     0.050502419   -0.98048427     0.0045078249   0.050502145    0.10140985   
     68600   0.098893088    0.049397098   -0.98048689     0.0037681395   0.04939683     0.099075753  
     68700   0.096699789    0.048301544   -0.98053231     0.0031895761   0.048301286    0.097398364  
     68800   0.099632989    0.049766678   -0.98053291    -0.00088692091  0.049766407    0.10142792   
     68900   0.10375107     0.051823658   -0.979877       0.0035680732   0.051823388    0.10298555   
     69000   0.1030684      0.051482666   -0.98053625     0.0011598741   0.051482397    0.10147109   
     69100   0.097756676    0.04882946    -0.98025881    -0.0030841952   0.048829203    0.096748124  
     69200   0.1043554      0.05212552    -0.98036405     0.00309584     0.052125243    0.10328241   
     69300   0.099642649    0.049771503   -0.98546293     0.0040852735   0.049771228    0.10217673   
     69400   0.096889223    0.048396167   -0.98553709     0.0037446134   0.048395904    0.098123435  
     69500   0.1011607      0.050529769   -0.98474353     0.0040947716   0.050529497    0.10183744   
     69600   0.10060909     0.050254242   -0.98596431     0.0051540678   0.050253973    0.10074356   
     69700   0.099654108    0.049777227   -0.98582096     0.004082695    0.049776966    0.098957286  
     69800   0.10105698     0.050477963   -0.98499298     0.0037841916   0.050477693    0.10054784   
     69900   0.099162503    0.04953167    -0.9889338      0.0064737813   0.049531399    0.10031023   
     70000   0.10381497     0.051855575   -0.98818566     0.0009146576   0.05185531     0.099697322  
     70100   0.098339327    0.049120494   -0.98880102     0.0026476855   0.049120228    0.098902638  
     70200   0.10075267     0.05032596    -0.98748299    -0.0037217709   0.05032569     0.1002951    
     70300   0.097627635    0.048765003   -0.98810297     0.0047997735   0.048764743    0.097790974  
     70400   0.10009872     0.049999309   -0.9889589      0.00079489289  0.049999048    0.098790158  
     70500   0.10409855     0.051997224   -0.98829315     0.00067543391  0.05199696     0.1001947    
     70600   0.1018554      0.050876774   -0.98821711     0.0031086955   0.050876513    0.10013979   
     70700   0.096960654    0.048431847   -0.98799134     0.003604571    0.048431575    0.099180883  
     70800   0.098480168    0.049190844   -0.99101698     0.0046902342   0.049190576    0.098944854  
     70900   0.10026726     0.050083495   -0.99175733     0.00042086723  0.050083228    0.10017329   
     71000   0.1007835      0.050341359   -0.99327507     0.0017833348   0.050341099    0.09794211   
     71100   0.096809842    0.048356516   -0.99327375     0.001712969    0.048356256    0.098268784  
     71200   0.1017651      0.050831666   -0.99647769     0.0025038895   0.050831394    0.10180932   
     71300   0.10154619     0.050722321   -0.99661128     0.0018425076   0.050722052    0.10025905   
     71400   0.099294539    0.049597622   -0.99970915     0.00097084924  0.049597355    0.099447647  
     71500   0.098086271    0.048994092   -1.0015031      0.0051609565   0.04899383     0.098641904  
     71600   0.099863526    0.049881831   -1.00115        0.0028175456   0.04988157     0.09772073   
     71700   0.099061664    0.049481301   -1.0038564      0.0054951501   0.049481035    0.099659911  
     71800   0.10135069     0.05062467    -1.0042577      0.00385416     0.050624397    0.10178457   
     71900   0.10069176     0.050295532   -1.004165       0.0055331853   0.050295269    0.099732085  
     72000   0.097172327    0.048537577   -1.0069198     -0.0018238953   0.048537312    0.098445398  
     72100   0.10063329     0.050266326   -1.0101468      0.00076976489  0.050266061    0.099754613  
     72200   0.10242289     0.051160235   -1.0127642      0.00641068     0.051159953    0.10254283   
     72300   0.10246183     0.051179682   -1.0121077      0.0027536415   0.051179415    0.10026851   
     72400   0.099785872    0.049843043   -1.0117141     -0.00024909924  0.049842787    0.098378402  
     72500   0.099804685    0.04985244    -1.0123038      0.0041077023   0.049852164    0.10108899   
     72600   0.10371637     0.051806329   -1.0129895      0.0036455784   0.051806058    0.10065886   
     72700   0.10103341     0.050466189   -1.0124003      0.0024397233   0.050465923    0.10014852   
     72800   0.095834694    0.04786943    -1.0117642     -0.00040854414  0.047869162    0.09899079   
     72900   0.10093038     0.050414726   -1.0157994      0.0025656079   0.050414453    0.10056073   
     73000   0.094149754    0.047027802   -1.0149492      0.0041781579   0.047027546    0.096413506  
     73100   0.097543192    0.048722825   -1.0144476      0.00055955968  0.048722557    0.09900069   
     73200   0.10397033     0.05193318    -1.0151415      0.0011313684   0.051932913    0.10119755   
     73300   0.096034195    0.047969081   -1.0233146      2.0023147e-05  0.04796882     0.09856112   
     73400   0.10143023     0.050664402   -1.0228992      0.0013612922   0.050664132    0.10024185   
     73500   0.10187688     0.050887499   -1.0233396      0.001785746    0.050887233    0.10011117   
     73600   0.098635824    0.049268594   -1.0238112      0.0049784868   0.049268323    0.10152487   
     73700   0.10071463     0.050306959   -1.0224252      0.0035265741   0.050306687    0.10135461   
     73800   0.099601371    0.049750885   -1.0252361      0.0020523796   0.049750626    0.098649123  
     73900   0.098995095    0.04944805    -1.0283405     -0.00090741173  0.049447784    0.098755595  
[...]
    981700   0.099640329    0.049770344   -2.9361541      0.001787809    0.049770084    0.10017688   
    981800   0.10435541     0.052125529   -2.9354298     -0.0037232568   0.052125257    0.1032509    
    981900   0.099440633    0.049670596   -2.9354664     -0.0023997765   0.049670328    0.099895461  
    982000   0.097186437    0.048544625   -2.9361409      0.0075794797   0.048544353    0.10088678   
    982100   0.1012679      0.050583316   -2.9350907      0.0027863697   0.050583039    0.10141866   
    982200   0.10154946     0.050723955   -2.9365957      0.0038758247   0.050723679    0.10329091   
    982300   0.10345098     0.051673766   -2.9363858      0.0062220882   0.0516735      0.099419978  
    982400   0.096055488    0.047979716   -2.9346513     -0.0012299767   0.047979443    0.099698123  
    982500   0.10269195     0.051294629   -2.9352639      0.00078130571  0.051294358    0.1020961    
    982600   0.099203689    0.049552243   -2.9349253      0.0035869416   0.049551976    0.098615778  
    982700   0.10468566     0.05229049    -2.9345637      0.0050417096   0.052290213    0.10338408   
    982800   0.10434755     0.052121603   -2.9344766      0.0038181322   0.052121326    0.10381002   
    982900   0.10089766     0.050398382   -2.9343871     -0.0038089729   0.050398112    0.10033795   
    983000   0.098066091    0.048984012   -2.9346772      0.0031297288   0.048983751    0.098710369  
    983100   0.10431859     0.052107134   -2.9347055      0.0068258379   0.052106863    0.10286262   
    983200   0.10346235     0.051679441   -2.9350009     -0.0014375387   0.051679178    0.10046368   
    983300   0.10195202     0.050925033   -2.9344034     -0.00079087659  0.050924762    0.10079415   
    983400   0.099709651    0.049804971   -2.936133       0.0057546994   0.049804699    0.10082266   
    983500   0.1009488      0.050423924   -2.93728        0.0025447404   0.050423657    0.099784472  
    983600   0.096913822    0.048408454   -2.9357255     -0.002757236    0.048408182    0.099931603  
    983700   0.10051026     0.050204875   -2.9362397     -0.00030366929  0.050204609    0.10064403   
    983800   0.10207486     0.050986392   -2.9345476      0.000562147    0.050986119    0.10255394   
    983900   0.097558918    0.04873068    -2.9361608      0.0043763072   0.048730407    0.10009846   
    984000   0.10149647     0.050697485   -2.934139       0.00093946696  0.050697215    0.1005924    
    984100   0.099775097    0.049837661   -2.9354254      0.0059094844   0.049837398    0.099348916  
    984200   0.10418771     0.052041761   -2.9349533     -0.00044260988  0.052041491    0.10326767   
    984300   0.10043381     0.050166689   -2.9357551      0.00031909884  0.050166424    0.10060523   
    984400   0.10078515     0.050342182   -2.9345172      0.0035895295   0.050341914    0.10198981   
    984500   0.099690326    0.049795318   -2.9357548     -0.00028032576  0.049795049    0.099868024  
    984600   0.10266567     0.051281504   -2.9343436     -0.0017834151   0.051281232    0.10077007   
    984700   0.098981115    0.049441067   -2.934484       0.011224456    0.049440797    0.10107927   
    984800   0.10307229     0.051484609   -2.9346578     -0.00078087089  0.051484336    0.10283478   
    984900   0.097744676    0.048823466   -2.9350826      0.0037920835   0.048823207    0.09911744   
    985000   0.10172192     0.050810098   -2.9365484     -0.0037947082   0.050809832    0.10084004   
    985100   0.10490789     0.052401489   -2.9357765     -0.0017418428   0.052401211    0.10437737   
    985200   0.097970271    0.04893615    -2.934975      -0.00050787592  0.048935882    0.10012815   
    985300   0.09903125     0.04946611    -2.9352419      0.00091096832  0.04946584     0.099461374  
    985400   0.10073871     0.050318983   -2.9337464      0.0043610449   0.050318711    0.10108678   
    985500   0.10021726     0.050058524   -2.9341683     -0.003301433    0.050058248    0.10121149   
    985600   0.10270761     0.05130245    -2.9362304     -0.00066631868  0.051302184    0.10030622   
    985700   0.10116992     0.050534376   -2.9351644      0.00065717242  0.050534106    0.10107291   
    985800   0.10014075     0.050020307   -2.9366559      0.002256299    0.050020036    0.099833513  
    985900   0.10155299     0.050725717   -2.9358658      0.0018308986   0.050725447    0.10115123   
    986000   0.10180564     0.050851915   -2.9353767      0.001110132    0.050851647    0.1011481    
    986100   0.10577812     0.052836173   -2.936562      -0.0050500352   0.052835896    0.10423128   
    986200   0.1013528      0.050625722   -2.9346805      0.0025753651   0.050625454    0.10134629   
    986300   0.094282158    0.047093938   -2.9359756      5.310854e-05   0.047093677    0.096885029  
    986400   0.10076444     0.050331839   -2.9347371     -0.0030752518   0.050331562    0.10217643   
    986500   0.097221152    0.048561965   -2.9356363     -0.0046970068   0.048561701    0.099716583  
    986600   0.098444483    0.049173019   -2.9362696     -0.00011537018  0.049172757    0.098907365  
    986700   0.10318743     0.051542121   -2.9352796      0.0061539456   0.051541852    0.10069944   
    986800   0.1069812      0.053437111   -2.9345316      0.0046615724   0.053436841    0.10197676   
    986900   0.10552107     0.052707775   -2.9379469     -0.0038315593   0.052707501    0.10245093   
    987000   0.10567073     0.05278253    -2.9387721     -0.0092311965   0.052782255    0.10461401   
    987100   0.099397329    0.049648966   -2.9374606     -0.0061174037   0.049648693    0.10015372   
    987200   0.097351121    0.048626885   -2.9395346     -0.0023282547   0.048626611    0.10116207   
    987300   0.10184014     0.050869148   -2.9383006      0.0055788091   0.050868882    0.10024735   
    987400   0.10034234     0.050121      -2.9374887     -0.0062698796   0.050120727    0.10142115   
    987500   0.098051931    0.04897694    -2.9380922      0.0013991194   0.048976671    0.099391661  
    987600   0.10888044     0.054385778   -2.9374026     -0.003899863    0.054385495    0.10630331   
    987700   0.1012423      0.05057053    -2.9394087     -0.0012327212   0.050570263    0.10011676   
    987800   0.098202982    0.049052389   -2.9385728      0.0066682149   0.049052119    0.10030636   
    987900   0.10256846     0.051232947   -2.938134       0.0038468139   0.051232683    0.09984696   
    988000   0.10539743     0.052646015   -2.9378089      0.004973105    0.052645747    0.10180929   
    988100   0.099870424    0.049885277   -2.938253      -0.0033066137   0.049885004    0.10141886   
    988200   0.099322361    0.049611519   -2.9359096     -0.0040739494   0.049611247    0.10088091   
    988300   0.099469461    0.049684996   -2.9388795      0.0025824208   0.04968473     0.10004592   
    988400   0.097744253    0.048823254   -2.9372583     -0.00033613896  0.048822987    0.10099469   
    988500   0.097201905    0.048552351   -2.9369063      0.0018369133   0.048552082    0.10074411   
    988600   0.09852684     0.049214156   -2.9392274     -0.0089583144   0.049213887    0.10138157   
    988700   0.10425774     0.052076741   -2.9381112      0.0021134307   0.052076467    0.1025954    
    988800   0.10632798     0.053110827   -2.9384453     -0.0019570287   0.053110552    0.10288773   
    988900   0.098373171    0.049137399   -2.9394444      0.00087710311  0.049137129    0.099617193  
    989000   0.097563847    0.048733141   -2.9387655      0.0033601917   0.048732878    0.098087338  
    989100   0.10303603     0.051466499   -2.9382369     -0.0036036171   0.051466224    0.10379035   
    989200   0.097592503    0.048747455   -2.936717       0.0007400755   0.048747191    0.098787561  
    989300   0.10122872     0.050563748   -2.9376257      0.0050126163   0.050563476    0.10056698   
    989400   0.10290934     0.051403217   -2.9371616      0.0032443312   0.051402943    0.1014579    
    989500   0.10111639     0.050507638   -2.9374777     -0.00052746772  0.050507365    0.10155083   
    989600   0.099820687    0.049860433   -2.9384308      0.0028167325   0.049860171    0.09918831   
    989700   0.097665516    0.048783925   -2.9390077      0.0050703121   0.048783669    0.096879496  
    989800   0.10191391     0.050905998   -2.9379702      0.0026976033   0.050905739    0.099425492  
    989900   0.099967767    0.049933899   -2.9370632      0.0040463276   0.04993364     0.098875085  
    990000   0.097337744    0.048620203   -2.9395201      0.0016987074   0.048619938    0.098737997  
    990100   0.10086713     0.050383133   -2.9383261      0.0048403646   0.050382858    0.1016161    
    990200   0.098883977    0.049392547   -2.9388852     -0.00079816965  0.049392293    0.097842302  
    990300   0.10070095     0.050300123   -2.9384596      0.00057116604  0.050299852    0.10085479   
    990400   0.099657991    0.049779167   -2.9378649      0.0066916472   0.0497789      0.10010712   
    990500   0.095152924    0.047528886   -2.9383704     -0.011495286    0.047528624    0.097755857  
    990600   0.100893       0.050396052   -2.9376599      0.0044330114   0.050395783    0.10012462   
    990700   0.097399096    0.048650849   -2.9396767      0.00019992371  0.048650584    0.10008691   
    990800   0.10157802     0.050738221   -2.938345       6.2839999e-05  0.050737956    0.098568922  
    990900   0.10399265     0.05194433    -2.9388461     -0.00057196984  0.051944062    0.10182112   
    991000   0.097600388    0.048751394   -2.9387434      0.0014661314   0.048751133    0.097875951  
    991100   0.10565766     0.052775999   -2.9385963     -0.002107253    0.052775721    0.10459543   
    991200   0.10154092     0.050719688   -2.9380391     -5.6954259e-05  0.050719421    0.10036359   
    991300   0.10074844     0.050323843   -2.9393997     -0.00015111518  0.050323571    0.10289095   
    991400   0.098476187    0.049188856   -2.9379609      0.0033837763   0.049188585    0.1002997    
    991500   0.099754783    0.049827514   -2.9380839      0.0036922637   0.049827251    0.099135502  
    991600   0.10059549     0.050247449   -2.9369614      0.0031492092   0.050247177    0.10267489   
    991700   0.10173227     0.050815268   -2.9363224     -0.002355036    0.050815001    0.099864896  
    991800   0.097003284    0.04845314    -2.9376999     -0.004639087    0.048452882    0.09704825   
    991900   0.10287284     0.051384985   -2.9408908      0.0017340643   0.051384717    0.1017531    
    992000   0.097437686    0.048670124   -2.9448324     -0.0046892788   0.048669861    0.09806954   
    992100   0.097061158    0.048482048   -2.9434788      0.0038537669   0.048481781    0.098599746  
    992200   0.097216444    0.048559614   -2.9446496      0.0047058083   0.048559347    0.097820432  
    992300   0.099318081    0.049609382   -2.9437699     -0.0067115278   0.049609114    0.10039329   
    992400   0.1007962      0.0503477     -2.9433281     -0.0042908775   0.050347435    0.099137775  
    992500   0.095515471    0.047709978   -2.9436501      0.002000582    0.047709717    0.097395261  
    992600   0.10257711     0.051237267   -2.9446612     -0.003887502    0.051236994    0.10166947   
    992700   0.098606096    0.049253745   -2.9435443      0.00037270367  0.049253471    0.10065572   
    992800   0.09895826     0.049429651   -2.9436294     -0.0033487157   0.049429377    0.10103912   
    992900   0.10137467     0.050636646   -2.9437051     -0.0017368129   0.050636375    0.10108974   
    993000   0.1028162      0.051356692   -2.9422516     -0.0003800686   0.051356422    0.10218058   
    993100   0.1037529      0.051824573   -2.9433922      0.0028070476   0.051824295    0.10307801   
    993200   0.098969535    0.049435283   -2.9435074     -0.00070134773  0.04943502     0.098217917  
    993300   0.099452565    0.049676556   -2.9443872      0.0038920034   0.049676292    0.098897371  
    993400   0.10686972     0.053381426   -2.9437291      0.0042380596   0.053381143    0.10552909   
    993500   0.097076448    0.048489686   -2.9437551     -0.0074425734   0.048489417    0.09881001   
    993600   0.10313103     0.05151395    -2.9438769     -0.00050575537  0.051513673    0.10341527   
    993700   0.10014159     0.050020723   -2.9430805      0.0027850946   0.050020458    0.099381535  
    993800   0.099925785    0.04991293    -2.9430337      0.003494563    0.049912663    0.10037268   
    993900   0.10008542     0.049992668   -2.9425876      0.0029141225   0.049992408    0.09999028   
    994000   0.10156168     0.050730061   -2.9432012     -0.00042976573  0.050729796    0.10102277   
    994100   0.10133584     0.050617252   -2.9441169      0.0055979486   0.050616984    0.10138407   
    994200   0.099601122    0.04975076    -2.9432369      0.00039771018  0.04975049     0.10061659   
    994300   0.099552187    0.049726317   -2.9442945      0.0010999747   0.049726055    0.099744037  
    994400   0.10187111     0.050884621   -2.9430859      0.00016434565  0.050884356    0.10081802   
    994500   0.098966662    0.049433848   -2.9425278      0.00026378294  0.049433577    0.099706397  
    994600   0.098548949    0.0492252     -2.9428588      0.000592195    0.049224936    0.098940535  
    994700   0.098364538    0.049133087   -2.9439927      0.0044843813   0.049132815    0.10078488   
    994800   0.099522988    0.049711733   -2.9433546     -0.0057334608   0.049711465    0.099017542  
    994900   0.10181093     0.050854562   -2.9432384     -0.00048628894  0.050854295    0.10046731   
    995000   0.099305149    0.049602922   -2.9428778     -0.0031979368   0.049602654    0.099751313  
    995100   0.10936573     0.054628181   -2.9446883     -0.0049399842   0.054627909    0.10376764   
    995200   0.10206482     0.050981376   -2.9425571     -0.00099701164  0.050981097    0.10332747   
    995300   0.10161949     0.050758933   -2.943818      -8.2814482e-05  0.050758659    0.1008515    
    995400   0.10149535     0.050696928   -2.9447889      0.00010588254  0.050696656    0.1018315    
    995500   0.096693506    0.048298406   -2.9437928     -0.00059755122  0.048298134    0.10025959   
    995600   0.10361133     0.05175386    -2.9432917     -0.0001539282   0.051753587    0.10127154   
    995700   0.097298247    0.048600475   -2.9432786     -0.0013798502   0.048600211    0.098569967  
    995800   0.10071834     0.050308812   -2.9451518     -0.003098758    0.050308542    0.10000669   
    995900   0.099301115    0.049600907   -2.943505       0.007669032    0.049600643    0.099993471  
    996000   0.099251602    0.049576175   -2.9443926     -0.00079587869  0.049575915    0.097270878  
    996100   0.10153356     0.050716015   -2.9439824      0.0016536115   0.05071575     0.09942807   
    996200   0.097854569    0.048878357   -2.9436561     -0.0033568136   0.0488781      0.09678661   
    996300   0.099220468    0.049560624   -2.9439998      0.007822379    0.049560362    0.098253931  
    996400   0.099290065    0.049595387   -2.9449823     -0.00046145494  0.049595126    0.099719884  
    996500   0.10401721     0.051956595   -2.9446891      0.0075507166   0.051956318    0.10347484   
    996600   0.10633484     0.053114251   -2.9446495      0.00093657368  0.053113983    0.1019942    
    996700   0.10243021     0.05116389    -2.9445582      0.0049956786   0.05116362     0.10104976   
    996800   0.10087073     0.050384929   -2.9444703     -0.0092055076   0.050384669    0.098138608  
    996900   0.10246026     0.051178901   -2.9441419      0.0004406782   0.051178633    0.10127717   
    997000   0.10262155     0.051259466   -2.9435346     -0.0040814619   0.051259198    0.10152714   
    997100   0.10424242     0.052069091   -2.9425223      0.0023279701   0.052068815    0.10251771   
    997200   0.1000968      0.049998353   -2.9433347     -0.0021904365   0.049998083    0.10161705   
    997300   0.098181458    0.049041638   -2.9437255     -0.00069277021  0.04904138     0.097552702  
    997400   0.10026606     0.050082895   -2.9436135     -0.0014232199   0.050082617    0.1025406    
    997500   0.10546749     0.052681011   -2.9445212      0.00016656519  0.052680736    0.1036723    
    997600   0.09974787     0.049824061   -2.9443516     -0.0090025806   0.049823801    0.099680147  
    997700   0.10280687     0.051352033   -2.9445207     -0.0030465364   0.051351766    0.10094035   
    997800   0.10035491     0.050127277   -2.9435518      0.0029415507   0.050127011    0.10133079   
    997900   0.10121832     0.05055855    -2.9430454      0.0035371766   0.050558271    0.10354832   
    998000   0.10033549     0.050117578   -2.9430382      0.0054235863   0.050117312    0.10105091   
    998100   0.10297943     0.051438226   -2.9436816     -0.001643274    0.051437962    0.0995359    
    998200   0.10517507     0.052534946   -2.9441148      0.0049884634   0.052534672    0.10332788   
    998300   0.099955516    0.04992778    -2.9431565     -0.0031062421   0.049927517    0.097865854  
    998400   0.096218843    0.048061312   -2.94361        0.00047278624  0.048061051    0.097898142  
    998500   0.10225166     0.051074702   -2.9437108     -0.0021652224   0.05107443     0.10144522   
    998600   0.099826928    0.049863551   -2.9434593      0.0057953274   0.049863291    0.098184959  
    998700   0.096840187    0.048371674   -2.9428682     -0.0013367668   0.048371398    0.099999654  
    998800   0.10514949     0.052522168   -2.9438659      0.0013937506   0.052521896    0.10168099   
    998900   0.098497034    0.049199268   -2.9433882      0.0052388983   0.049199001    0.10049743   
    999000   0.10490805     0.052401573   -2.9432461     -0.0023723466   0.052401301    0.10315622   
    999100   0.099435729    0.049668146   -2.943641      -0.0040574079   0.049667888    0.098127488  
    999200   0.0993136      0.049607143   -2.9446147     -0.00056331014  0.049606878    0.099433453  
    999300   0.09954956     0.049725005   -2.9435433      0.00013971996  0.049724736    0.099845766  
    999400   0.10016849     0.050034163   -2.9451224     -0.0048642606   0.050033893    0.10238264   
    999500   0.10282496     0.051361068   -2.9447057     -0.0037996157   0.051360797    0.10243566   
    999600   0.096930536    0.048416803   -2.944284       0.0001890595   0.048416541    0.098866693  
    999700   0.10130435     0.050601523   -2.9437076      0.0016594053   0.050601245    0.10192317   
    999800   0.099328974    0.049614823   -2.9427711     -0.0048449711   0.049614562    0.098847486  
    999900   0.10026371     0.050081722   -2.9433489      0.0014627737   0.050081461    0.099256381  
   1000000   0.10331782     0.051607252   -2.9434121     -0.0026341548   0.051606987    0.10039484   
Loop time of 1260.02 on 1 procs for 1000000 steps with 3000 atoms

Performance: 342851.064 tau/day, 793.637 timesteps/s, 2.381 Matom-step/s
99.8% CPU use with 1 MPI tasks x 1 OpenMP threads

MPI task timing breakdown:
Section |  min time  |  avg time  |  max time  |%varavg| %total
---------------------------------------------------------------
Pair    | 35.828     | 35.828     | 35.828     |   0.0 |  2.84
Bond    | 0.036739   | 0.036739   | 0.036739   |   0.0 |  0.00
Neigh   | 711.72     | 711.72     | 711.72     |   0.0 | 56.48
Comm    | 63.594     | 63.594     | 63.594     |   0.0 |  5.05
Output  | 0.65751    | 0.65751    | 0.65751    |   0.0 |  0.05
Modify  | 421.21     | 421.21     | 421.21     |   0.0 | 33.43
Other   |            | 26.97      |            |       |  2.14

Nlocal:           3000 ave        3000 max        3000 min
Histogram: 1 0 0 0 0 0 0 0 0 0
Nghost:           1051 ave        1051 max        1051 min
Histogram: 1 0 0 0 0 0 0 0 0 0
Neighs:              0 ave           0 max           0 min
Histogram: 1 0 0 0 0 0 0 0 0 0

Total # of neighbors = 0
Ave neighs/atom = 0
Ave special neighs/atom = 0
Neighbor list builds = 1000000
Dangerous builds not checked

Total wall time: 0:21:00
