LAMMPS (10 Sep 2025 - Development - patch_10Sep2025-660-g792d014343)
OMP_NUM_THREADS environment is not set. Defaulting to 1 thread.
  using 1 OpenMP thread(s) per MPI task
# Defining the essential variables

units lj
dimension 3
atom_style atomic
boundary p p p




# Creating  a large box

region my_box block 0 30 0 30 0 30
create_box 1 my_box
Created orthogonal box = (0 0 0) to (30 30 30)
  1 by 1 by 1 MPI processor grid





# Filling up the box with the particles

create_atoms 1 random 5000 87910 my_box
Created 5000 atoms
  using lattice units in orthogonal box = (0 0 0) to (30 30 30)
  create_atoms CPU = 0.001 seconds




# Defining the particle's properties and switching off the interaction

mass 1 1.0

pair_style lj/cut 2.5
pair_style none




# Creating initial velocity distribution for a given temperature

velocity all create 1.0 12345 mom yes rot no  # Assign initial velocities




# Setting up Brownian dynamics through the Langevin thermostat at a particular temperature

fix my_thermo_stat all langevin 1  1  0.1 89080




# Applying an integrator to update the position and the velocity

fix integrator all nve




# Setting up time achieved by each simulation step

timestep 0.005




# Specifying the parameters to print on the terminal

thermo 100
thermo_style custom step temp ke pe press






# Apply another compute to calculate the mean squared displacement

compute msd_all all msd
fix msd_output all ave/time 100 1 100 c_msd_all file msd.dat mode vector





# Running the simulation

run 40000
WARNING: No pairwise cutoff or binsize set. Atom sorting therefore disabled. (src/atom.cpp:2486)
WARNING: Communication cutoff is 0.0. No ghost atoms will be generated. Energies and forces may be wrong and atoms may get lost. (src/comm_brick.cpp:188)
Per MPI rank memory allocation (min/avg/max) = 2.672 | 2.672 | 2.672 Mbytes
   Step          Temp          KinEng         PotEng         Press     
         0   1              1.4997         0              0.18514815   
       100   1.018512       1.5274624      0              0.1885756    
       200   0.99125282     1.4865819      0              0.18352862   
       300   1.0019181      1.5025766      0              0.18550328   
       400   1.0005366      1.5005048      0              0.18524751   
       500   1.0116332      1.5171463      0              0.18730201   
       600   0.99375097     1.4903283      0              0.18399115   
       700   0.99547306     1.4929109      0              0.18430999   
       800   0.99219731     1.4879983      0              0.1837035    
       900   1.0016261      1.5021386      0              0.18544921   
      1000   0.99517542     1.4924646      0              0.18425489   
      1100   1.0063839      1.5092739      0              0.18633011   
      1200   1.0117059      1.5172553      0              0.18731547   
      1300   0.98981609     1.4844272      0              0.18326262   
      1400   0.98666304     1.4796986      0              0.18267883   
      1500   0.98584176     1.4784669      0              0.18252678   
      1600   0.99572907     1.4932949      0              0.18435739   
      1700   0.99353474     1.490004       0              0.18395112   
      1800   1.0057323      1.5082968      0              0.18620948   
      1900   1.0019471      1.5026201      0              0.18550866   
      2000   0.9976731      1.4962103      0              0.18471733   
      2100   1.0026723      1.5037077      0              0.18564292   
      2200   0.98450101     1.4764562      0              0.18227854   
      2300   1.0148236      1.521931       0              0.18789271   
      2400   1.0114045      1.5168033      0              0.18725967   
      2500   1.0026358      1.5036528      0              0.18563615   
      2600   0.99176065     1.4873434      0              0.18362265   
      2700   1.0068689      1.5100012      0              0.1864199    
      2800   0.99696868     1.4951539      0              0.1845869    
      2900   0.99059282     1.485592       0              0.18340643   
      3000   0.99247727     1.4884182      0              0.18375533   
      3100   1.003018       1.5042261      0              0.18570693   
      3200   1.0119187      1.5175745      0              0.18735487   
      3300   1.0018081      1.5024117      0              0.18548292   
      3400   0.99896877     1.4981535      0              0.18495722   
      3500   0.99956886     1.4990534      0              0.18506832   
      3600   1.0123606      1.5182373      0              0.1874367    
      3700   1.0038147      1.5054209      0              0.18585443   
      3800   1.0137433      1.5203108      0              0.18769269   
      3900   0.99810151     1.4968528      0              0.18479665   
      4000   1.0037187      1.5052769      0              0.18583665   
      4100   0.98046561     1.4704043      0              0.18153139   
      4200   1.0047805      1.5068692      0              0.18603324   
      4300   0.99455866     1.4915396      0              0.18414069   
      4400   0.99267132     1.4887092      0              0.18379126   
      4500   0.99415726     1.4909376      0              0.18406638   
      4600   0.99234404     1.4882184      0              0.18373066   
      4700   0.99574989     1.4933261      0              0.18436125   
      4800   1.0073445      1.5107145      0              0.18650797   
      4900   0.99993665     1.499605       0              0.18513642   
      5000   1.0175134      1.5259649      0              0.18839073   
      5100   1.0008167      1.5009248      0              0.18529935   
      5200   0.99189666     1.4875474      0              0.18364783   
      5300   0.98284195     1.4739681      0              0.18197137   
      5400   1.0014351      1.5018522      0              0.18541385   
      5500   1.0092744      1.5136088      0              0.18686529   
      5600   0.98199585     1.4726992      0              0.18181471   
      5700   1.0109039      1.5160526      0              0.18716698   
      5800   0.98968183     1.4842258      0              0.18323776   
      5900   1.0147826      1.5218695      0              0.18788512   
      6000   0.99287627     1.4890165      0              0.1838292    
      6100   1.020871       1.5310003      0              0.18901238   
      6200   0.97675622     1.4648413      0              0.1808446    
      6300   0.98747245     1.4809124      0              0.18282869   
      6400   0.99861335     1.4976204      0              0.18489141   
      6500   1.0132875      1.5196272      0              0.1876083    
      6600   0.98896838     1.4831559      0              0.18310566   
      6700   0.97727313     1.4656165      0              0.18094031   
      6800   0.98480129     1.4769065      0              0.18233414   
      6900   1.0016248      1.5021366      0              0.18544897   
      7000   1.0202606      1.5300848      0              0.18889936   
      7100   1.0015253      1.5019875      0              0.18543055   
      7200   1.002638       1.5036562      0              0.18563656   
      7300   0.97624411     1.4640733      0              0.18074979   
      7400   0.96649417     1.4494513      0              0.17894461   
      7500   1.0035462      1.5050182      0              0.18580472   
      7600   1.0022877      1.5031309      0              0.18557172   
      7700   0.9972294      1.4955449      0              0.18463518   
      7800   0.99082409     1.4859389      0              0.18344925   
      7900   1.0127422      1.5188095      0              0.18750735   
      8000   1.0089644      1.513144       0              0.1868079    
      8100   1.0285017      1.542444       0              0.19042518   
      8200   1.0208374      1.5309499      0              0.18900616   
      8300   1.0068056      1.5099063      0              0.18640819   
      8400   1.0203935      1.5302841      0              0.18892396   
      8500   1.0051017      1.507351       0              0.18609272   
      8600   1.0245339      1.5364934      0              0.18969055   
      8700   1.0195611      1.5290357      0              0.18876984   
      8800   1.0008969      1.5010451      0              0.1853142    
      8900   0.98923056     1.4835491      0              0.18315421   
      9000   1.0129512      1.5191229      0              0.18754603   
      9100   0.99320206     1.4895051      0              0.18388952   
      9200   1.0068413      1.5099598      0              0.18641479   
      9300   1.0073859      1.5107767      0              0.18651564   
      9400   1.0092046      1.5135041      0              0.18685235   
      9500   0.97722372     1.4655424      0              0.18093116   
      9600   1.0002499      1.5000748      0              0.18519442   
      9700   0.99945149     1.4988774      0              0.18504659   
      9800   1.0086758      1.5127111      0              0.18675446   
      9900   1.0009822      1.501173       0              0.18533001   
     10000   1.0149849      1.5221729      0              0.18792258   
     10100   1.0049665      1.5071483      0              0.18606769   
     10200   1.0013053      1.5016575      0              0.18538982   
     10300   0.98493111     1.4771012      0              0.18235817   
     10400   0.99870411     1.4977566      0              0.18490822   
     10500   0.98728733     1.4806348      0              0.18279442   
     10600   1.011926       1.5175855      0              0.18735623   
     10700   0.98017864     1.4699739      0              0.18147826   
     10800   1.0125128      1.5184654      0              0.18746486   
     10900   1.0011713      1.5014566      0              0.18536501   
     11000   1.007274       1.5106089      0              0.18649492   
     11100   0.99169495     1.4872449      0              0.18361048   
     11200   1.0091422      1.5134105      0              0.1868408    
     11300   0.98840078     1.4823046      0              0.18300057   
     11400   1.0121449      1.5179137      0              0.18739675   
     11500   1.0026013      1.5036012      0              0.18562978   
     11600   0.98531908     1.477683       0              0.18243      
     11700   0.98960653     1.4841129      0              0.18322382   
     11800   1.0201251      1.5298816      0              0.18887427   
     11900   1.0050242      1.5072347      0              0.18607836   
     12000   0.99578229     1.4933747      0              0.18436725   
     12100   0.99139381     1.4867933      0              0.18355473   
     12200   1.0065494      1.5095222      0              0.18636076   
     12300   0.99856838     1.497553       0              0.18488309   
     12400   1.0198953      1.529537       0              0.18883173   
     12500   0.9954504      1.492877       0              0.1843058    
     12600   1.0031792      1.5044678      0              0.18573676   
     12700   0.99737681     1.495766       0              0.18466247   
     12800   1.0082986      1.5121455      0              0.18668463   
     12900   1.0056101      1.5081134      0              0.18618684   
     13000   1.0067846      1.5098748      0              0.1864043    
     13100   0.99455333     1.4915316      0              0.18413971   
     13200   1.0027807      1.5038702      0              0.18566298   
     13300   1.0019503      1.5026248      0              0.18550924   
     13400   0.99606936     1.4938052      0              0.1844204    
     13500   1.021973       1.5326529      0              0.18921641   
     13600   0.99283628     1.4889566      0              0.1838218    
     13700   0.98931502     1.4836757      0              0.18316984   
     13800   1.0294786      1.5439091      0              0.19060606   
     13900   1.0046238      1.5066343      0              0.18600423   
     14000   0.99454929     1.4915256      0              0.18413896   
     14100   1.0065497      1.5095226      0              0.18636081   
     14200   1.0033255      1.5046872      0              0.18576386   
     14300   0.98407907     1.4758234      0              0.18220042   
     14400   1.0255108      1.5379586      0              