LAMMPS (10 Sep 2025 - Development - patch_10Sep2025-660-g792d014343)
OMP_NUM_THREADS environment is not set. Defaulting to 1 thread.
  using 1 OpenMP thread(s) per MPI task
# Defining the essential variables

units lj
dimension 3
atom_style atomic
boundary p p p




# Creating  a large box

region my_box block 0 30 0 30 0 30
create_box 1 my_box
Created orthogonal box = (0 0 0) to (30 30 30)
  1 by 1 by 1 MPI processor grid





# Filling up the box with the particles

create_atoms 1 random 5000 87910 my_box
Created 5000 atoms
  using lattice units in orthogonal box = (0 0 0) to (30 30 30)
  create_atoms CPU = 0.000 seconds




# Defining the particle's properties and switching off the interaction

mass 1 1.0

pair_style lj/cut 2.5
pair_style none




# Creating initial velocity distribution for a given temperature

velocity all create 1.0 12345 mom yes rot no  # Assign initial velocities




# Setting up Brownian dynamics through the Langevin thermostat at a particular temperature

fix my_thermo_stat all langevin 1  1  0.3 89080




# Applying an integrator to update the position and the velocity

fix integrator all nve




# Setting up time achieved by each simulation step

timestep 0.005




# Specifying the parameters to print on the terminal

thermo 100
thermo_style custom step temp ke pe press






# Apply another compute to calculate the mean squared displacement

compute msd_all all msd
fix msd_output all ave/time 100 1 100 c_msd_all file msd.dat mode vector





# Running the simulation

run 40000
WARNING: No pairwise cutoff or binsize set. Atom sorting therefore disabled. (src/atom.cpp:2486)
WARNING: Communication cutoff is 0.0. No ghost atoms will be generated. Energies and forces may be wrong and atoms may get lost. (src/comm_brick.cpp:188)
Per MPI rank memory allocation (min/avg/max) = 2.672 | 2.672 | 2.672 Mbytes
   Step          Temp          KinEng         PotEng         Press     
         0   1              1.4997         0              0.18514815   
       100   1.0207887      1.5308768      0              0.18899714   
       200   0.9893588      1.4837414      0              0.18317795   
       300   0.99935219     1.4987285      0              0.18502821   
       400   0.98812221     1.4818869      0              0.182949     
       500   1.0070085      1.5102107      0              0.18644576   
       600   1.0049578      1.5071352      0              0.18606607   
       700   0.99825404     1.4970816      0              0.18482489   
       800   0.99939718     1.4987959      0              0.18503654   
       900   0.99214911     1.487926       0              0.18369457   
      1000   1.0118911      1.5175331      0              0.18734976   
      1100   1.0158195      1.5234245      0              0.1880771    
      1200   1.0161813      1.5239671      0              0.18814409   
      1300   0.99766647     1.4962004      0              0.1847161    
      1400   0.9999957      1.4996935      0              0.18514735   
      1500   0.98718338     1.4804789      0              0.18277518   
      1600   0.99614721     1.493922       0              0.18443481   
      1700   0.98826429     1.4821         0              0.1829753    
      1800   0.99941462     1.4988221      0              0.18503977   
      1900   0.99836929     1.4972544      0              0.18484623   
      2000   0.99069202     1.4857408      0              0.18342479   
      2100   1.0097302      1.5142925      0              0.18694969   
      2200   0.99634319     1.4942159      0              0.1844711    
      2300   1.0074734      1.5109078      0              0.18653183   
      2400   1.0043164      1.5061733      0              0.18594733   
      2500   1.0024983      1.5034467      0              0.1856107    
      2600   0.98385168     1.4754824      0              0.18215832   
      2700   1.0108036      1.5159022      0              0.18714842   
      2800   0.99487913     1.4920202      0              0.18420003   
      2900   1.0092535      1.5135774      0              0.18686141   
      3000   1.0089671      1.513148       0              0.1868084    
      3100   1.0079103      1.5115631      0              0.18661273   
      3200   1.0152756      1.5226088      0              0.18797639   
      3300   1.0002276      1.5000413      0              0.18519029   
      3400   0.99304479     1.4892693      0              0.1838604    
      3500   1.0003328      1.5001991      0              0.18520976   
      3600   1.0211528      1.5314228      0              0.18906455   
      3700   1.0012959      1.5016434      0              0.18538808   
      3800   1.0011377      1.5014062      0              0.18535879   
      3900   1.0007016      1.5007522      0              0.18527804   
      4000   1.010488       1.5154288      0              0.18708997   
      4100   0.97449642     1.4614523      0              0.18042621   
      4200   0.99462217     1.4916349      0              0.18415245   
      4300   0.98995363     1.4846335      0              0.18328808   
      4400   0.9837667      1.4753549      0              0.18214258   
      4500   0.98065205     1.4706839      0              0.18156591   
      4600   0.99105344     1.4862829      0              0.18349171   
      4700   0.99114436     1.4864192      0              0.18350854   
      4800   1.0017285      1.5022922      0              0.18546817   
      4900   0.99331543     1.4896751      0              0.18391051   
      5000   1.0140429      1.5207602      0              0.18774817   
      5100   1.0020551      1.502782       0              0.18552864   
      5200   0.99167936     1.4872215      0              0.1836076    
      5300   0.98763387     1.4811545      0              0.18285858   
      5400   1.0088157      1.512921       0              0.18678036   
      5500   1.010045       1.5147646      0              0.18700797   
      5600   0.9830573      1.474291       0              0.18201124   
      5700   1.0070696      1.5103023      0              0.18645708   
      5800   0.99019846     1.4850006      0              0.18333341   
      5900   1.0098543      1.5144785      0              0.18697265   
      6000   0.99325469     1.4895841      0              0.18389927   
      6100   1.0123301      1.5181915      0              0.18743105   
      6200   0.97981396     1.469427       0              0.18141074   
      6300   0.98460665     1.4766146      0              0.1822981    
      6400   1.0099515      1.5146242      0              0.18699065   
      6500   1.0138929      1.5205352      0              0.1877204    
      6600   0.99274028     1.4888126      0              0.18380402   
      6700   0.97810109     1.4668582      0              0.18109361   
      6800   0.98675026     1.4798294      0              0.18269498   
      6900   0.99075502     1.4858353      0              0.18343646   
      7000   1.0250542      1.5372738      0              0.18978689   
      7100   1.0081414      1.5119097      0              0.18665551   
      7200   0.99387926     1.4905207      0              0.18401491   
      7300   0.99370458     1.4902588      0              0.18398256   
      7400   0.97339608     1.4598021      0              0.18022248   
      7500   1.0007261      1.500789       0              0.18528259   
      7600   1.0006591      1.5006884      0              0.18527017   
      7700   1.0061227      1.5088823      0              0.18628176   
      7800   0.99694015     1.4951111      0              0.18458162   
      7900   1.0027952      1.5038919      0              0.18566567   
      8000   1.011906       1.5175554      0              0.18735252   
      8100   1.0387596      1.5578277      0              0.19232441   
      8200   1.0265834      1.5395672      0              0.19007002   
      8300   1.0091983      1.5134947      0              0.1868512    
      8400   1.0150831      1.5223202      0              0.18794076   
      8500   1.0028716      1.5040065      0              0.18567981   
      8600   1.0338442      1.5504562      0              0.19141435   
      8700   1.0242829      1.5361171      0              0.18964408   
      8800   0.99574544     1.4933194      0              0.18436042   
      8900   1.0135217      1.5199785      0              0.18765167   
      9000   1.0203394      1.530203       0              0.18891395   
      9100   1.0021266      1.5028893      0              0.18554189   
      9200   1.0182389      1.5270528      0              0.18852504   
      9300   1.0020242      1.5027357      0              0.18552292   
      9400   1.0075533      1.5110277      0              0.18654663   
      9500   0.97117481     1.4564709      0              0.17981122   
      9600   0.99836894     1.4972539      0              0.18484616   
      9700   1.0032633      1.504594       0              0.18575235   
      9800   1.0027454      1.5038173      0              0.18565645   
      9900   0.9984299      1.4973453      0              0.18485745   
     10000   1.006343       1.5092127      0              0.18632255   
     10100   1.0027556      1.5038326      0              0.18565835   
     10200   1.0019366      1.5026043      0              0.18550671   
     10300   0.99613244     1.4938998      0              0.18443208   
     10400   1.0020253      1.5027373      0              0.18552313   
     10500   0.99497529     1.4921644      0              0.18421783   
     10600   1.0310511      1.5462674      0              0.19089721   
     10700   0.98784613     1.4814728      0              0.18289788   
     10800   1.0162352      1.5240479      0              0.18815407   
     10900   1.0143441      1.5212118      0              0.18780393   
     11000   1.0019946      1.5026913      0              0.18551745   
     11100   1.0059752      1.508661       0              0.18625444   
     11200   1.0210632      1.5312885      0              0.18904796   
     11300   0.98962139     1.4841352      0              0.18322657   
     11400   0.99968464     1.499227       0              0.18508976   
     11500   1.0103276      1.5151883      0              0.18706029   
     11600   0.99139346     1.4867928      0              0.18355466   
     11700   0.99986461     1.499497       0              0.18512308   
     11800   1.0191808      1.5284655      0              0.18869944   
     11900   1.0000666      1.4997998      0              0.18516047   
     12000   0.99862838     1.497643       0              0.1848942    
     12100   0.98519291     1.4774938      0              0.18240664   
     12200   0.99949388     1.498941       0              0.18505444   
     12300   1.0016998      1.5022492      0              0.18546286   
     12400   1.0068794      1.5100171      0              0.18642187   
     12500   0.99467282     1.4917108      0              0.18416183   
     12600   1.0006757      1.5007133      0              0.18527325   
     12700   1.0045112      1.5064655      0              0.18598339   
     12800   1.012755       1.5188287      0              0.18750971   
     12900   1.0047329      1.506798       0              0.18602444   
     13000   1.012298       1.5181433      0              0.1874251    
     13100   1.0029155      1.5040724      0              0.18568794   
     13200   1.005715       1.5082708      0              0.18620628   
     13300   0.99884082     1.4979616      0              0.18493353   
     13400   0.99382419     1.4904381      0              0.18400471   
     13500   1.0327325      1.5487889      0              0.19120851   
     13600   0.99036074     1.485244       0              0.18336346   
     13700   0.99521209     1.4925196      0              0.18426168   
     13800   1.0158531      1.5234749      0              0.18808332   
     13900   1.0051875      1.5074798      0              0.18610861   
     14000   0.99253185     1.4885         0              0.18376543   
     14100   1.0097177      1.5142737      0              0.18694737   
     14200   0.99806481     1.4967978      0              0.18478985   
     14300   0.98782582     1.4814424      0              0.18289412   
     14400   1.0078925      1.5115365      0              0.18660944   
     14500   0.98347673     1.47492        0              0.18208889   
     14600   0.98312426     1.4743915      0              0.18202364   
     14700   0.99403977     1.4907614      0              0.18404462   
     14800   1.0087247      1.5127845      0              0.18676352   
     14900   0.9862002      1.4790044      0              0.18259314   
     15000   1.0092346      1.5135491      0              0.18685791   
     15100   1.0172061      1.525504       0              0.18833383   
     15200   1.0026972      1.503745       0              0.18564753   
     15300   0.99206791     1.4878043      0              0.18367954   
     15400   0.9919485      1.4876252      0              0.18365743   
     15500   1.007903       1.5115522      0              0.18661138   
     15600   1.0009223      1.5010832      0              0.18531891   
     15700   0.98772343     1.4812888      0              0.18287516   
     15800   0.9916327      1.4871516      0              0.18359896   
     15900   0.98430162     1.4761571      0              0.18224162   
     16000   0.99728637     1.4956304      0              0.18464572   
     16100   0.9899416      1.4846154      0              0.18328585   
     16200   1.0113424      1.5167102      0              0.18724817   
     16300   0.9926336      1.4886526      0              0.18378427   
     16400   0.99284015     1.4889624      0              0.18382251   
     16500   0.9852065      1.4775142      0              0.18240916   
     16600   0.98104044     1.4712663      0              0.18163782   
     16700   1.0048732      1.5070084      0              0.18605042   
     16800   0.9871973      1.4804998      0              0.18277775   
     16900   0.99758123     1.4960726      0              0.18470032   
     17000   0.99067087     1.4857091      0              0.18342088   
     17100   1.0029702      1.5041543      0              0.18569807   
     17200   1.0012899      1.5016344      0              0.18538697   
     17300   1.0136073      1.5201069      0              0.18766752   
     17400   0.99895207     1.4981284      0              0.18495413   
     17500   0.99425198     1.4910797      0              0.18408391   
     17600   1.0098105      1.5144128      0              0.18696455   
     17700   1.0226296      1.5336376      0              0.18933798   
     17800   0.99479542     1.4918947      0              0.18418453   
     17900   1.0004664      1.5003995      0              0.1852345    
     18000   0.98357418     1.4750662      0              0.18210694   
     18100   0.98012244     1.4698896      0              0.18146786   
     18200   0.99048763     1.4854343      0              0.18338695   
     18300   0.99960304     1.4991047      0              0.18507465   
     18400   0.99464792     1.4916735      0              0.18415722   
     18500   0.99105519     1.4862855      0              0.18349203   
     18600   0.99551517     1.4929741      0              0.18431779   
     18700   1.004976       1.5071624      0              0.18606944   
     18800   1.0016006      1.5021004      0              0.1854445    
     18900   0.98899395     1.4831942      0              0.1831104    
     19000   1.010928       1.5160888      0              0.18717145   
     19100   1.0029816      1.5041716      0              0.18570019   
     19200   1.0182685      1.5270972      0              0.18853052   
     19300   0.98154276     1.4720197      0              0.18173082   
     19400   0.99854583     1.4975192      0              0.18487891   
     19500   1.0080201      1.5117278      0              0.18663306   
     19600   1.0102514      1.515074       0              0.18704617   
     19700   1.0061794      1.5089672      0              0.18629225   
     19800   0.98797385     1.4816644      0              0.18292153   
     19900   0.98796409     1.4816497      0              0.18291972   
     20000   0.9862515      1.4790814      0              0.18260264   
     20100   0.99351812     1.4899791      0              0.18394804   
     20200   0.99800387     1.4967064      0              0.18477857   
     20300   1.0157096      1.5232597      0              0.18805676   
     20400   0.99711641     1.4953755      0              0.18461426   
     20500   1.0119861      1.5176755      0              0.18736734   
     20600   1.0101598      1.5149366      0              0.18702921   
     20700   0.99456132     1.4915436      0              0.18414119   
     20800   0.98705628     1.4802883      0              0.18275164   
     20900   0.9824317      1.4733528      0              0.18189541   
     21000   0.98941502     1.4838257      0              0.18318836   
     21100   0.99959032     1.4990856      0              0.1850723    
     21200   0.99678829     1.4948834      0              0.18455351   
     21300   1.000946       1.5011188      0              0.1853233    
     21400   0.99052703     1.4854934      0              0.18339424   
     21500   0.98494558     1.4771229      0              0.18236085   
     21600   0.99666442     1.4946976      0              0.18453057   
     21700   0.9998194      1.4994292      0              0.18511471   
     21800   1.0058792      1.508517       0              0.18623667   
     21900   1.0186766      1.5277093      0              0.18860609   
     22000   1.0114241      1.5168327      0              0.1872633    
     22100   1.003845       1.5054664      0              0.18586005   
     22200   0.99281375     1.4889228      0              0.18381763   
     22300   0.99647643     1.4944157      0              0.18449577   
     22400   1.0109535      1.516127       0              0.18717617   
     22500   0.98525214     1.4775826      0              0.18241761   
     22600   1.0133305      1.5196918      0              0.18761627   
     22700   0.9991866      1.4984801      0              0.18499755   
     22800   1.0004586      1.5003878      0              0.18523306   
     22900   0.99254998     1.4885272      0              0.18376879   
     23000   0.98904595     1.4832722      0              0.18312003   
     23100   1.0064415      1.5093603      0              0.18634078   
     23200   0.99012491     1.4848903      0              0.18331979   
     23300   0.99627394     1.494112       0              0.18445828   
     23400   0.99669281     1.4947402      0              0.18453583   
     23500   0.99933509     1.4987028      0              0.18502504   
     23600   0.99016555     1.4849513      0              0.18332732   
     23700   0.99902453     1.4982371      0              0.18496754   
     23800   1.000725       1.5007873      0              0.18528239   
     23900   0.99933454     1.498702       0              0.18502494   
     24000   1.0092519      1.513575       0              0.18686112   
     24100   1.0126729      1.5187056      0              0.18749452   
     24200   1.0004647      1.5003969      0              0.18523419   
     24300   1.0133582      1.5197333      0              0.1876214    
     24400   0.98483799     1.4769615      0              0.18234093   
     24500   1.005315       1.5076709      0              0.18613221   
     24600   0.99231286     1.4881716      0              0.18372489   
     24700   1.0055377      1.5080048      0              0.18617344   
     24800   1.0016019      1.5021023      0              0.18544473   
     24900   1.0066829      1.5097224      0              0.18638548   
     25000   1.011833       1.517446       0              0.18733901   
     25100   1.0113182      1.516674       0              0.1872437    
     25200   0.97386076     1.460499       0              0.18030852   
     25300   0.98774531     1.4813216      0              0.18287922   
     25400   1.0021256      1.5028878      0              0.1855417    
     25500   0.9959518      1.4936289      0              0.18439863   
     25600   1.0019625      1.5026432      0              0.18551151   
     25700   0.99726302     1.4955954      0              0.1846414    
     25800   1.0046473      1.5066695      0              0.18600858   
     25900   1.0116281      1.5171387      0              0.18730107   
     26000   1.0047311      1.5067952      0              0.1860241    
     26100   0.98045501     1.4703884      0              0.18152943   
     26200   0.99719316     1.4954906      0              0.18462847   
     26300   1.0115939      1.5170873      0              0.18729473   
     26400   1.0108215      1.5159291      0              0.18715173   
     26500   0.99668026     1.4947214      0              0.1845335    
     26600   1.0014246      1.5018365      0              0.18541191   
     26700   1.0070598      1.5102876      0              0.18645526   
     26800   0.96821238     1.4520281      0              0.17926273   
     26900   0.99621414     1.4940223      0              0.1844472    
     27000   0.99094336     1.4861178      0              0.18347133   
     27100   1.0094134      1.5138173      0              0.18689103   
     27200   0.99297344     1.4891623      0              0.18384719   
     27300   1.0224468      1.5333635      0              0.18930414   
     27400   0.98775233     1.4813322      0              0.18288052   
     27500   1.0033198      1.5046787      0              0.1857628    
     27600   1.0025253      1.5034872      0              0.18561571   
     27700   0.99889689     1.4980457      0              0.18494391   
     27800   0.99923466     1.4985522      0              0.18500645   
     27900   0.99724973     1.4955754      0              0.18463894   
     28000   1.0079834      1.5116726      0              0.18662625   
     28100   1.0074143      1.5108192      0              0.18652089   
     28200   1.0039391      1.5056075      0              0.18587747   
     28300   1.0039119      1.5055666      0              0.18587242   
     28400   1.0156775      1.5232115      0              0.18805081   
     28500   0.99902929     1.4982442      0              0.18496842   
     28600   0.99964468     1.4991671      0              0.18508236   
     28700   1.008599       1.5125959      0              0.18674023   
     28800   0.98751418     1.480975       0              0.18283642   
     28900   1.0008438      1.5009655      0              0.18530438   
     29000   0.99723105     1.4955474      0              0.18463548   
     29100   1.008438       1.5123545      0              0.18671043   
     29200   1.0032527      1.504578       0              0.18575037   
     29300   0.97895511     1.468139       0              0.18125173   
     29400   0.99640873     1.4943142      0              0.18448323   
     29500   1.004529       1.5064922      0              0.18598669   
     29600   1.0148999      1.5220453      0              0.18790683   
     29700   0.99642983     1.4943458      0              0.18448714   
     29800   0.97769949     1.4662559      0              0.18101925   
     29900   1.0116892      1.5172303      0              0.18731238   
     30000   0.98525085     1.4775807      0              0.18241737   
     30100   0.98011205     1.469874       0              0.18146593   
     30200   0.98681999     1.4799339      0              0.18270789   
     30300   0.99232075     1.4881834      0              0.18372635   
     30400   1.018475       1.5274069      0              0.18856875   
     30500   1.0084329      1.5123468      0              0.18670948   
     30600   1.0004946      1.5004417      0              0.18523971   
     30700   0.98024056     1.4700668      0              0.18148972   
     30800   0.99260143     1.4886044      0              0.18377832   
     30900   0.99470877     1.4917647      0              0.18416849   
     31000   0.98648838     1.4794366      0              0.1826465    
     31100   1.0039292      1.5055927      0              0.18587564   
     31200   0.98007581     1.4698197      0              0.18145922   
     31300   0.98937015     1.4837584      0              0.18318005   
     31400   0.99859924     1.4975993      0              0.1848888    
     31500   0.9869064      1.4800635      0              0.18272389   
     31600   1.0231787      1.534461       0              0.18943963   
     31700   0.99877878     1.4978685      0              0.18492204   
     31800   1.0154345      1.5228471      0              0.18800581   
     31900   1.0161468      1.5239154      0              0.1881377    
     32000   1.0182671      1.5270952      0              0.18853027   
     32100   0.98488001     1.4770246      0              0.18234871   
     32200   1.0136566      1.5201808      0              0.18767665   
     32300   1.0044229      1.5063331      0              0.18596705   
     32400   1.0037136      1.5052693      0              0.18583572   
     32500   1.0109916      1.5161841      0              0.18718322   
     32600   1.021534       1.5319945      0              0.18913512   
     32700   1.0002167      1.500025       0              0.18518828   
     32800   1.0033752      1.5047619      0              0.18577307   
     32900   0.99833512     1.4972032      0              0.1848399    
     33000   0.97839978     1.4673061      0              0.18114891   
     33100   0.9994833      1.4989251      0              0.18505248   
     33200   1.0038951      1.5055415      0              0.18586932   
     33300   0.99531361     1.4926718      0              0.18428047   
     33400   1.0033339      1.5046998      0              0.18576541   
     33500   0.99408273     1.4908259      0              0.18405258   
     33600   1.0102019      1.5149999      0              0.18703702   
     33700   0.98379092     1.4753912      0              0.18214707   
     33800   0.9949755      1.4921648      0              0.18421787   
     33900   1.0268545      1.5399737      0              0.1901202    
     34000   0.99104424     1.486269       0              0.18349      
     34100   1.0169485      1.5251176      0              0.18828613   
     34200   0.99608783     1.4938329      0              0.18442382   
     34300   0.99135549     1.4867358      0              0.18354763   
     34400   0.9969076      1.4950623      0              0.1845756    
     34500   0.98445309     1.4763843      0              0.18226967   
     34600   1.0055468      1.5080185      0              0.18617512   
     34700   1.0034027      1.504803       0              0.18577814   
     34800   0.99836172     1.4972431      0              0.18484482   
     34900   0.99104958     1.486277       0              0.18349099   
     35000   0.99498272     1.4921756      0              0.18421921   
     35100   0.99268309     1.4887268      0              0.18379344   
     35200   1.0002172      1.5000257      0              0.18518836   
     35300   1.0037125      1.5052677      0              0.18583551   
     35400   0.97806433     1.4668031      0              0.1810868    
     35500   1.0107736      1.5158572      0              0.18714286   
     35600   0.98785386     1.4814844      0              0.18289931   
     35700   1.0035531      1.5050286      0              0.185806     
     35800   0.99843713     1.4973562      0              0.18485879   
     35900   1.002247       1.5030698      0              0.18556417   
     36000   1.0059422      1.5086116      0              0.18624834   
     36100   0.98869233     1.4827419      0              0.18305455   
     36200   1.0042577      1.5060853      0              0.18593646   
     36300   1.0195383      1.5290016      0              0.18876563   
     36400   1.0064565      1.5093828      0              0.18634355   
     36500   0.99128648     1.4866323      0              0.18353486   
     36600   1.0215594      1.5320326      0              0.18913983   
     36700   1.0082368      1.5120527      0              0.18667317   
     36800   1.0174069      1.5258051      0              0.188371     
     36900   1.020016       1.529718       0              0.18885408   
     37000   0.99605224     1.4937796      0              0.18441723   
     37100   0.9840405      1.4757655      0              0.18219328   
     37200   0.98900312     1.483208       0              0.1831121    
     37300   1.0075582      1.511035       0              0.18654753   
     37400   1.0173585      1.5257326      0              0.18836205   
     37500   0.98691027     1.4800693      0              0.18272461   
     37600   0.99723209     1.495549       0              0.18463568   
     37700   0.99212665     1.4878923      0              0.18369041   
     37800   0.99753172     1.4959983      0              0.18469115   
     37900   0.98624268     1.4790681      0              0.18260101   
     38000   0.99543574     1.492855       0              0.18430308   
     38100   1.0271386      1.5403997      0              0.19017281   
     38200   0.98834933     1.4822275      0              0.18299105   
     38300   1.0157922      1.5233835      0              0.18807204   
     38400   0.98297889     1.4741734      0              0.18199672   
     38500   1.0026879      1.5037311      0              0.18564581   
     38600   0.99438415     1.4912779      0              0.18410838   
     38700   1.0048836      1.507024       0              0.18605235   
     38800   0.99331721     1.4896778      0              0.18391084   
     38900   1.0134651      1.5198935      0              0.18764118   
     39000   1.0077462      1.511317       0              0.18658234   
     39100   0.98913641     1.4834079      0              0.18313677   
     39200   0.988337       1.482209       0              0.18298876   
     39300   0.99801094     1.496717       0              0.18477988   
     39400   1.0226825      1.533717       0              0.18934778   
     39500   1.0056885      1.508231       0              0.18620136   
     39600   0.99456551     1.4915499      0              0.18414196   
     39700   1.007241       1.5105593      0              0.1864888    
     39800   0.99486284     1.4919958      0              0.18419701   
     39900   0.99022059     1.4850338      0              0.18333751   
     40000   1.0020476      1.5027708      0              0.18552726   
Loop time of 7.69509 on 1 procs for 40000 steps with 5000 atoms

Performance: 2245588.562 tau/day, 5198.122 timesteps/s, 25.991 Matom-step/s
99.8% CPU use with 1 MPI tasks x 1 OpenMP threads

MPI task timing breakdown:
Section |  min time  |  avg time  |  max time  |%varavg| %total
---------------------------------------------------------------
Pair    | 0          | 0          | 0          |   0.0 |  0.00
Neigh   | 0.024573   | 0.024573   | 0.024573   |   0.0 |  0.32
Comm    | 0.15299    | 0.15299    | 0.15299    |   0.0 |  1.99
Output  | 0.0077466  | 0.0077466  | 0.0077466  |   0.0 |  0.10
Modify  | 7.1119     | 7.1119     | 7.1119     |   0.0 | 92.42
Other   |            | 0.3979     |            |       |  5.17

Nlocal:           5000 ave        5000 max        5000 min
Histogram: 1 0 0 0 0 0 0 0 0 0
Nghost:              0 ave           0 max           0 min
Histogram: 1 0 0 0 0 0 0 0 0 0
Neighs:              0 ave           0 max           0 min
Histogram: 1 0 0 0 0 0 0 0 0 0

Total # of neighbors = 0
Ave neighs/atom = 0
Neighbor list builds = 5540
Dangerous builds = 0
Total wall time: 0:00:07
