LAMMPS (10 Sep 2025 - Development - patch_10Sep2025-660-g792d014343)
OMP_NUM_THREADS environment is not set. Defaulting to 1 thread.
  using 1 OpenMP thread(s) per MPI task
# Defining essential variables

units lj
atom_style  hybrid sphere molecular
WARNING: Atom style hybrid defines both, per-type and per-atom masses; both must be set, but only per-atom masses will be used (src/atom_vec_hybrid.cpp:132)
boundary p p p
pair_style hybrid lj/cut 2.0 cosine/squared 0.12




# Creating simulation box

region box block 0 30.0 0 30.0 0 30.0
create_box 2 box
Created orthogonal box = (0 0 0) to (30 30 30)
  1 by 1 by 1 MPI processor grid




# Loading and creating molecule from the given template

molecule patchy_part patchy_molecule.mol
Read molecule template patchy_part:
(no title)
  1 molecules
  0 fragments
  0 bodies
  3 atoms with max type 2
  0 bonds with max type 0
  0 angles with max type 0
  0 dihedrals with max type 0
  0 impropers with max type 0
create_atoms 0 random 1000 87910 NULL mol patchy_part 454756 overlap 1.5 maxtry 50
Created 3000 atoms
  using lattice units in orthogonal box = (0 0 0) to (30 30 30)
  create_atoms CPU = 0.416 seconds



pair_modify shift yes
WARNING: pair_modify shift has no effect on pair_style cosine/squared (src/EXTRA-PAIR/pair_cosine_squared.cpp:219)
# Defining particle properties and interaction parameters among the particles

pair_coeff 1 1 lj/cut 1.0 1.0 1.1224
pair_coeff 1 2 none
pair_coeff 2 2 cosine/squared 8 0.3 0.35        # Gaussian potential for peripheral atoms

set type 1 mass 1.0
Setting atom values ...
  1000 settings made for mass
set type 2 mass 0.000001
Setting atom values ...
  2000 settings made for mass

set type 1 diameter 1.0
Setting atom values ...
  1000 settings made for diameter
set type 2 diameter 0.0
Setting atom values ...
  2000 settings made for diameter




# Grouping the particles in different set to apply different fixes

group core type 1
1000 atoms in group core
group patch type 2
2000 atoms in group patch
group rigid_molecule type 1 2
3000 atoms in group rigid_molecule




# Speeding up simulation by excluding the unnecessary calculation of particles within the molecule

neigh_modify exclude molecule/intra rigid_molecule every 1 delay 0 check no




# Setting up thermostat on the brownian particles while the patches are being treated just an interaction cites

fix thermo_stat  core langevin 1.0 1.0 0.1 428984  omega yes




# Exporting the simulation data

dump 1 all custom 10000 simulation_data.lammpstrj id type x y z mol
fix rigid_thermo rigid_molecule rigid/small molecule
Fix rigid/small setup ...
  create bodies CPU = 0.001 seconds
  1000 rigid bodies with 3000 atoms
  0.5 = max distance from body owner to body atom




# Computing temperature and kinetic energy just on the central core particles

compute kinetic_core core ke
fix kinetic_output core ave/time 100 1 100 c_kinetic_core file kinetic.dat mode scalar

compute temp_core core temp/sphere
fix temp_output core ave/time 100 1 100 c_temp_core file temperature.dat mode scalar




# Defining the time step achieved in lj unit with each simulation step

timestep 0.005                               # Set timestep




# Specifying the parameters to be printed on the terminal

thermo 100
thermo_style custom step temp ke pe press c_kinetic_core c_temp_core




# Running the simulation

run 1000000
Generated 0 of 1 mixed pair_coeff terms from geometric mixing rule
Neighbor list info ...
  update: every = 1 steps, delay = 0 steps, check = no
  max neighbors/atom: 2000, page size: 100000
  master list distance cutoff = 1.4224
  ghost atom cutoff = 1.4224
  binsize = 0.7112, bins = 43 43 43
  3 neighbor lists, perpetual/occasional/extra = 3 0 0
  (1) pair lj/cut, perpetual, skip from (3)
      attributes: half, newton on
      pair build: skip
      stencil: none
      bin: none
  (2) pair cosine/squared, perpetual, skip from (3)
      attributes: half, newton on
      pair build: skip
      stencil: none
      bin: none
  (3) neighbor class addition, perpetual
      attributes: half, newton on
      pair build: half/bin/newton
      stencil: half/bin/3d
      bin: standard
WARNING: Computing temperature of portions of rigid bodies (src/RIGID/fix_rigid_small.cpp:1110)
Per MPI rank memory allocation (min/avg/max) = 13.68 | 13.68 | 13.68 Mbytes
   Step          Temp          KinEng         PotEng         Press      c_kinetic_core  c_temp_core  
         0   0              0              0              0.188285       0              0            
       100   0.98133739     0.49017803     0.00022733178  0.036547057    0.49017535     1.0003893    
       200   1.0172222      0.50810249    -0.0018718641   0.038415374    0.50809972     1.0298494    
       300   1.048398       0.52367481    -0.010609253    0.041355428    0.5236721      1.0166369    
       400   1.0230264      0.51100169    -0.019753807    0.039393932    0.51099898     0.99697338   
       500   1.0059008      0.50244743    -0.024748747    0.039625812    0.50244479     0.99862179   
       600   0.95848288     0.4787622     -0.037313706    0.036811561    0.47875958     0.98156131   
       700   1.0024154      0.5007065     -0.058757952    0.038575099    0.50070382     1.0095427    
       800   0.99971935     0.49935982    -0.072226084    0.035864767    0.49935722     0.97959491   
       900   0.97538065     0.48720264    -0.077780005    0.038417069    0.48719996     0.99180508   
      1000   0.98234832     0.49068299    -0.084032578    0.034994835    0.49068046     0.96353485   
      1100   0.97630583     0.48766476    -0.091657498    0.041612764    0.48766213     0.98688373   
      1200   0.98587395     0.49244404    -0.10502855     0.03796914     0.49244134     0.98552852   
      1300   0.95073926     0.47489426    -0.11652063     0.037829356    0.47489164     0.97964094   
      1400   1.0292576      0.51411417    -0.13208271     0.03920755     0.5141115      1.0207924    
      1500   1.038566       0.51876371    -0.14083437     0.042250045    0.51876113     0.98830616   
      1600   1.0139701      0.50647808    -0.15040526     0.039676601    0.50647543     1.002261     
      1700   0.97910374     0.48906232    -0.16926437     0.035650425    0.48905971     0.98992453   
      1800   0.98358624     0.49130133    -0.19288902     0.033674053    0.49129865     1.0010096    
      1900   1.0140869      0.50653643    -0.21666612     0.039652703    0.50653369     1.0182742    
      2000   1.0177154      0.50834884    -0.22357707     0.03985082     0.5083462      1.0047392    
      2100   1.0347255      0.51684538    -0.24835913     0.037034364    0.51684263     1.0242529    
      2200   1.0201303      0.50955506    -0.26871964     0.03602452     0.50955235     1.0247679    
      2300   1.0130251      0.50600604    -0.27902204     0.046520936    0.50600324     1.0398757    
      2400   1.0273091      0.51314091    -0.2930271      0.042840776    0.51313818     1.0258854    
      2500   0.97312472     0.4860758     -0.29940345     0.025369715    0.48607307     1.0077752    
      2600   0.96733514     0.4831839     -0.31669804     0.032738195    0.48318127     0.98880746   
      2700   0.99134488     0.49517677    -0.32404275     0.031344312    0.49517415     0.99394024   
      2800   1.033708       0.51633715    -0.33064882     0.03033907     0.51633446     1.0133677    
      2900   1.010185       0.5045874     -0.34543646     0.042227185    0.50458478     0.99653513   
      3000   1.0162205      0.50760214    -0.35959563     0.038820042    0.50759938     1.0204018    
      3100   0.98831532     0.4936635     -0.36924699     0.032723433    0.49366085     0.99828161   
      3200   1.0077831      0.50338768    -0.37637429     0.041379638    0.50338501     1.0026184    
      3300   1.030621       0.51479518    -0.3817261      0.036813235    0.51479257     0.98439428   
      3400   0.97779148     0.48840685    -0.3804075      0.029995162    0.48840425     0.97122514   
      3500   1.0456943      0.5223243     -0.39316279     0.028787533    0.52232159     1.0171972    
      3600   0.94704988     0.47305142    -0.39841261     0.015061755    0.47304875     0.98578332   
      3700   0.98508455     0.49204973    -0.40922072     0.035877615    0.49204705     0.98794186   
      3800   1.0266527      0.51281305    -0.42151342     0.037687197    0.51281038     1.0046227    
      3900   0.9997907      0.49939545    -0.43083269     0.031236762    0.49939274     1.0011524    
      4000   0.9976126      0.49830749    -0.44506916     0.042718885    0.49830475     1.0037951    
      4100   0.99350669     0.49625659    -0.44603564     0.029762294    0.49625391     0.9982318    
      4200   1.012427       0.50570729    -0.45559891     0.021530303    0.50570452     1.030479     
      4300   0.98477942     0.49189732    -0.47051652     0.036842053    0.49189469     0.99226759   
      4400   0.96974816     0.48438921    -0.47076296     0.034432188    0.48438665     0.97444598   
      4500   0.99049872     0.49475411    -0.4879606      0.031540189    0.49475139     0.99945837   
      4600   1.006566       0.50277971    -0.49455229     0.021458228    0.50277701     1.010484     
      4700   0.9679748      0.48350341    -0.50818817     0.02365208     0.48350071     0.99898389   
      4800   1.0063368      0.50266524    -0.50367018     0.034631669    0.50266251     1.0066944    
      4900   0.99993847     0.49946927    -0.51717728     0.033536138    0.49946665     0.98743792   
      5000   0.97588509     0.4874546     -0.51920591     0.03133075     0.4874519      0.99400563   
      5100   1.0289731      0.51397207    -0.52404701     0.026476186    0.51396934     1.0215354    
      5200   1.0388769      0.51891903    -0.53505016     0.033853007    0.5189164      1.008051     
      5300   1.0240468      0.51151138    -0.54500498     0.036911286    0.5115087      1.0155956    
      5400   1.0345865      0.51677595    -0.56872705     0.036137559    0.5167733      1.001672     
      5500   1.017472       0.50822724    -0.55724929     0.026074145    0.50822462     0.99850159   
      5600   1.0174954      0.50823898    -0.56516138     0.032826948    0.50823632     1.0039018    
      5700   1.0332776      0.51612218    -0.56342504     0.034606383    0.51611945     1.0208482    
      5800   0.98871524     0.49386326    -0.56773951     0.023196528    0.4938606      1.0070778    
      5900   1.0189318      0.50895643    -0.58856154     0.034603936    0.50895375     1.0179858    
      6000   0.98216267     0.49059025    -0.59046761     0.022681301    0.49058767     0.97770269   
      6100   0.96419406     0.48161493    -0.60086438     0.024554473    0.48161233     0.97396324   
      6200   0.97439476     0.48671018    -0.60216051     0.029430479    0.48670757     0.99210553   
      6300   0.98426043     0.49163808    -0.60487043     0.035369909    0.49163549     0.98641703   
      6400   1.0194359      0.50920824    -0.61119796     0.028439464    0.50920556     1.0112915    
      6500   1.0236996      0.51133794    -0.62109598     0.032909155    0.51133529     1.0063866    
      6600   1.0297563      0.5143633     -0.61773553     0.03799177     0.51436058     1.0137285    
      6700   0.97922229     0.48912153    -0.63448283     0.03164492     0.48911887     0.98921926   
      6800   1.0029589      0.50097798    -0.63880759     0.037133527    0.5009753      1.0207655    
      6900   0.99158126     0.49529484    -0.64770343     0.033448011    0.49529223     0.99263101   
      7000   1.0099951      0.50449253    -0.64262273     0.033030024    0.50448979     1.023971     
      7100   0.99883737     0.49891926    -0.64510442     0.031532237    0.49891669     0.99001983   
      7200   0.97710792     0.4880654     -0.65424686     0.031814242    0.48806278     0.9901815    
      7300   0.9912373      0.49512303    -0.65423256     0.034800832    0.49512042     0.99126433   
      7400   1.0528464      0.52589677    -0.68037641     0.042782185    0.52589402     1.0270593    
      7500   1.0472265      0.52308966    -0.68054504     0.03317348     0.52308697     1.020799     
      7600   1.0090048      0.50399792    -0.68236912     0.027876958    0.50399527     0.9963491    
      7700   1.0186703      0.50882584    -0.69352912     0.015930326    0.50882319     1.0030423    
      7800   0.98188292     0.49045052    -0.69422244     0.023710705    0.4904479      0.97383483   
      7900   1.0496968      0.52432355    -0.68468946     0.030273232    0.52432087     1.0224062    
      8000   0.99587804     0.49744108    -0.68844223     0.02024871     0.49743844     1.0081685    
      8100   1.0483694      0.52366053    -0.69643779     0.021421402    0.52365781     1.0388218    
      8200   0.96806387     0.48354791    -0.71221031     0.017686681    0.48354532     0.97490778   
      8300   1.0246695      0.5118224     -0.7177445      0.023142548    0.51181976     1.0000138    
      8400   1.0389215      0.51894128    -0.73454609     0.025613838    0.5189386      1.0103381    
      8500   1.0168814      0.50793227    -0.73437728     0.026000543    0.50792956     1.0146693    
      8600   0.99187861     0.49544337    -0.76187969     0.025617486    0.49544072     1.0028765    
      8700   1.0290931      0.51403199    -0.76968127     0.031715054    0.51402934     1.0064552    
      8800   1.0275454      0.5132589     -0.76644605     0.040794106    0.51325616     1.0283677    
      8900   1.031283       0.51512584    -0.77011713     0.0060208296   0.51512322     0.99701528   
      9000   1.0139705      0.50647825    -0.76417215     0.041183789    0.5064755      1.0185264    
      9100   1.0518057      0.52537693    -0.77148301     0.038825051    0.52537423     1.0285485    
      9200   0.95608273     0.47756332    -0.77553824     0.019601416    0.47756066     0.98151529   
      9300   1.0086562      0.50382376    -0.77395519     0.033350424    0.50382105     1.0009206    
      9400   1.0150745      0.50702972    -0.79689236     0.032026186    0.50702697     1.0154611    
      9500   0.96994667     0.48448836    -0.80921634     0.033850984    0.48448574     0.97844631   
      9600   0.99167562     0.49534197    -0.80546465     0.030439589    0.4953393      0.99927349   
      9700   1.0175898      0.50828608    -0.79872415     0.029029289    0.50828337     1.0027226    
      9800   0.9822863      0.49065201    -0.79758313     0.034971667    0.49064936     0.98639461   
      9900   1.0344549      0.51671023    -0.79356093     0.028325548    0.5167074      1.0528133    
     10000   0.98743231     0.49322244    -0.78174561     0.015083436    0.4932198      0.99607918   
     10100   1.036342       0.51765284    -0.79010162     0.0092150732   0.51765012     1.0248573    
     10200   0.96534545     0.48219005    -0.79323209     0.040435593    0.48218739     0.98505823   
     10300   0.96714249     0.48308767    -0.79140402     0.026619371    0.48308509     0.97527435   
     10400   1.0218259      0.51040206    -0.79256267     0.030549774    0.51039938     1.0172595    
     10500   1.0292399      0.51410531    -0.7941307      0.023264867    0.51410259     1.0260032    
     10600   0.94739633     0.47322447    -0.80000052     0.033889707    0.47322178     0.98891796   
     10700   0.97319451     0.48611066    -0.8241847      0.030380499    0.48610808     0.96886793   
     10800   0.99849543     0.49874847    -0.81315053     0.020084654    0.49874577     1.0093981    
     10900   0.98770548     0.49335889    -0.8083642      0.031803648    0.49335623     0.99131549   
     11000   1.0119531      0.50547055    -0.82125519     0.018609132    0.50546793     1.0006246    
     11100   1.0110603      0.50502461    -0.7953505      0.02240896     0.50502197     1.0012895    
     11200   0.97106224     0.48504559    -0.80972632     0.030014754    0.485043       0.97221853   
     11300   0.99984454     0.49942235    -0.81660461     0.033869279    0.49941974     0.98974043   
     11400   0.99448775     0.49674663    -0.81402172     0.026013844    0.49674391     1.0088068    
     11500   1.0263748      0.51267419    -0.82415144     0.040725771    0.5126714      1.0335591    
     11600   0.9710422      0.48503558    -0.82567244     0.026188208    0.48503293     0.98118992   
     11700   0.9718611      0.48544462    -0.82965876     0.01512746     0.48544203     0.97034289   
     11800   0.96433732     0.48168649    -0.83523045     0.028303149    0.48168381     0.9998655    
     11900   1.0248634      0.51191928    -0.84180739     0.043699279    0.51191657     1.0148133    
     12000   1.0301782      0.51457401    -0.84000242     0.035380445    0.51457136     1.0090014    
     12100   0.98216422     0.49059103    -0.83953599     0.037007053    0.49058835     0.98965521   
     12200   0.97083578     0.48493247    -0.84869037     0.034894061    0.48492979     1.0057449    
     12300   1.0305882      0.51477879    -0.86680343     0.018458734    0.51477607     1.0252201    
     12400   1.0052135      0.50210415    -0.87054511     0.038419704    0.50210143     1.0102238    
     12500   0.99875825     0.49887974    -0.87086763     0.025361262    0.49887709     1.0068148    
     12600   0.96933523     0.48418295    -0.87633171     0.02690919     0.48418024     0.99818174   
     12700   1.0100264      0.50450818    -0.87653551     0.02128708     0.50450559     0.98136195   
     12800   1.0073398      0.50316621    -0.86792797     0.017867291    0.5031635      0.9940986    
     12900   1.0297606      0.51436544    -0.88305973     0.027038894    0.51436273     1.0118985    
     13000   1.0199697      0.50947488    -0.87284699     0.020823034    0.50947229     0.98579693   
     13100   1.0537297      0.52633801    -0.8729712      0.010093314    0.5263352      1.0464724    
     13200   0.9992036      0.4991022     -0.87169547     0.032374132    0.49909949     1.0044525    
     13300   0.98545756     0.49223605    -0.87146599     0.016756805    0.4922334      0.99925843   
     13400   0.99328414     0.49614543    -0.88329697     0.026623295    0.49614275     0.99430551   
     13500   0.95243952     0.47574354    -0.88214033     0.024755151    0.4757409      0.98310727   
     13600   0.96890873     0.48396991    -0.88135241     0.024293892    0.48396721     1.0035989    
     13700   0.98687964     0.49294638    -0.89229354     0.024712355    0.49294372     1.0066926    
     13800   1.0122902      0.50563896    -0.88998934     0.018224415    0.50563625     1.0239259    
     13900   1.0382964      0.51862903    -0.88815628     0.02667245     0.51862639     1.0100385    
     14000   0.98281356     0.49091537    -0.89514588     0.030716724    0.49091266     1.0125112    
     14100   1.0045929      0.50179415    -0.8823243      0.021844333    0.50179157     0.97958112   
     14200   1.0091633      0.50407709    -0.88832906     0.039905175    0.50407436     1.0049558    
     14300   1.0199525      0.50946629    -0.89033013     0.032857157    0.50946369     1.0082655    
     14400   0.99587221     0.49743817    -0.89802957     0.022437193    0.49743548     0.99311292   
     14500   1.0277456      0.51335891    -0.88863308     0.032789725    0.51335625     1.0203302    
     14600   1.0110524      0.50502069    -0.88813813     0.02898984     0.50501793     1.0149661    
     14700   0.99260149     0.49580445    -0.8900065      0.024644941    0.49580173     1.0071759    
     14800   0.99074023     0.49487474    -0.89162922     0.03767692     0.4948721      0.99892311   
     14900   1.0243248      0.51165024    -0.89110092     0.031931237    0.51164751     1.0351879    
     15000   0.96424257     0.48163916    -0.89174644     0.027811448    0.48163647     1.0007732    
     15100   1.0532728      0.52610976    -0.89627513     0.023318675    0.52610705     1.0109034    
     15200   1.0294746      0.51422255    -0.91747759     0.027788491    0.51421995     0.98701295   
     15300   1.0019749      0.50048645    -0.92456863     0.017849364    0.50048384     0.98871313   
     15400   0.99924297     0.49912186    -0.91886734     0.022529963    0.49911921     0.98346551   
     15500   1.01285        0.5059186     -0.91415871     0.030377901    0.50591591     1.0000814    
     15600   1.0065994      0.5027964     -0.92191667     0.026139997    0.50279371     0.99678894   
     15700   1.0345139      0.51673967    -0.92479914     0.023848951    0.51673707     0.99959721   
     15800   1.0137783      0.50638224    -0.93141345     0.03004427     0.50637951     1.0211067    
     15900   1.0263869      0.51268026    -0.93235761     0.027926781    0.51267759     1.0068197    
     16000   0.95683271     0.47793794    -0.9400276      0.01585972     0.47793529     0.97130278   
     16100   1.0001858      0.49959283    -0.93132062     0.021096422    0.49959015     0.99782999   
     16200   1.0544289      0.52668724    -0.92998981     0.033220975    0.52668451     1.0171127    
     16300   1.0091793      0.50408507    -0.93469607     0.025160368    0.50408238     1.0036066    
     16400   1.0008417      0.49992042    -0.92901628     0.03812806     0.49991767     1.0252536    
     16500   1.0132199      0.50610336    -0.9219797      0.036436283    0.50610063     1.014925     
     16600   1.0101334      0.50456163    -0.93032644     0.022653346    0.50455891     1.0181192    
     16700   0.99769939     0.49835085    -0.949928       0.024006197    0.49834825     0.99131222   
     16800   1.0259024      0.51243824    -0.93232579     0.036473773    0.51243552     1.0195515    
     16900   0.97429428     0.48665999    -0.93536586     0.014869149    0.48665731     0.99174808   
     17000   0.99314978     0.49607831    -0.94590638     0.04328435     0.49607563     1.0107531    
     17100   1.0278606      0.51341637    -0.93709442     0.0066471741   0.51341366     1.0181536    
     17200   0.99391149     0.49645879    -0.9331769      0.032952535    0.49645615     1.0080118    
     17300   1.0445008      0.52172816    -0.95801764     0.027984983    0.5217254      1.0276158    
     17400   0.98486604     0.49194059    -0.94518944     0.029620341    0.49193786     1.0089715    
     17500   1.0077356      0.50336393    -0.95987272     0.0331124      0.50336119     1.0246114    
     17600   0.97272108     0.48587418    -0.95353959     0.030892685    0.48587153     0.97762441   
     17700   0.999844       0.49942208    -0.96339185     0.027195856    0.49941947     0.99517032   
     17800   0.98889252     0.49395181    -0.96693297     0.031710291    0.49394922     0.97102761   
     17900   1.0107241      0.50485668    -0.98023211     0.033546846    0.50485397     1.0158449    
     18000   0.99719935     0.49810107    -0.96503796     0.026590067    0.49809839     1.0062869    
     18100   1.0302514      0.51461057    -0.97515476     0.036636123    0.51460792     1.0036691    
     18200   0.99323605     0.49612141    -0.97624376     0.021175102    0.49611874     0.99762808   
     18300   1.037626       0.51829416    -0.98065051     0.01651127     0.51829146     1.0180595    
     18400   0.99205019     0.49552907    -0.98160058     0.013895869    0.49552637     1.0124205    
     18500   1.0143429      0.5066643     -0.98328421     0.019153202    0.50666167     0.97975487   
     18600   1.0242841      0.51162992    -1.0013832      0.017620468    0.51162728     1.0058585    
     18700   1.0127684      0.50587782    -1.002322       0.020509884    0.50587513     1.0100704    
     18800   0.98605088     0.49253242    -1.007592       0.027479031    0.49252975     0.9832213    
     18900   1.0349493      0.51695719    -1.0032391      0.03474064     0.51695443     1.0336518    
     19000   0.96908597     0.48405844    -1.0106024      0.024864799    0.48405582     0.97884479   
     19100   1.0366236      0.51779348    -1.0174725      0.035249711    0.51779072     1.0304362    
     19200   1.0176575      0.50831993    -1.0164376      0.032444611    0.50831722     0.99441454   
     19300   1.0266762      0.51282475    -1.0263678      0.00080858943  0.51282209     0.99355864   
     19400   0.9962995      0.4976516     -1.0309431      0.017100271    0.49764894     1.0195768    
     19500   0.95922553     0.47913315    -1.0516501      0.02013592     0.47913048     0.98463368   
     19600   0.99584825     0.4974262     -1.0607123      0.0016559652   0.49742354     0.99551671   
     19700   0.97521524     0.48712001    -1.0675899      0.0070415017   0.48711736     0.99868022   
     19800   1.0203893      0.50968447    -1.0607218      0.029295296    0.50968167     1.0238297    
     19900   0.98375495     0.4913856     -1.0733413      0.026799095    0.49138306     0.96331413   
     20000   0.96926244     0.48414659    -1.0831422      0.014322039    0.48414401     0.97252944   
     20100   0.99671838     0.49786083    -1.100528       0.048599297    0.49785809     1.0118778    
     20200   1.0208572      0.50991816    -1.1092501      0.015313104    0.50991546     1.0142024    
     20300   0.96919931     0.48411505    -1.0959236      0.025638969    0.48411247     0.96319444   
     20400   1.0106727      0.50483099    -1.0991545      0.024042568    0.50482831     1.0106824    
     20500   1.0218189      0.51039852    -1.0905761      0.028409096    0.51039578     1.0237322    
     20600   0.94246283     0.47076018    -1.0925547      0.035219746    0.47075762     0.94714117   
     20700   0.98622191     0.49261785    -1.0984048      0.0058380164   0.49261516     1.0125321    
     20800   1.0054749      0.50223471    -1.0926111      0.031102939    0.50223204     0.99955049   
     20900   1.0388159      0.51888853    -1.0861809      0.021331859    0.51888587     1.0136551    
     21000   0.97843038     0.48872597    -1.096929       0.027973125    0.48872332     0.99501175   
     21100   1.0161741      0.50757897    -1.0844786      0.0093854118   0.50757629     1.0111303    
     21200   0.97793765     0.48847986    -1.0961802      0.020442697    0.48847722     0.98283051   
     21300   0.99279821     0.49590271    -1.1037004      0.042150404    0.49589998     1.0143104    
     21400   1.0273748      0.5131737     -1.097228       0.004001827    0.513171       1.0280445    
     21500   1.0351451      0.51705499    -1.1045865      0.029612154    0.51705226     1.0336175    
     21600   1.0318271      0.51539763    -1.1128151      0.021246479    0.51539491     1.0184877    
     21700   1.0162842      0.50763397    -1.1034033      0.027838666    0.50763131     1.0085273    
     21800   1.0353588      0.5171617     -1.1147306      0.026519009    0.51715903     1.0080909    
     21900   1.0000233      0.49951162    -1.1286637      0.025835651    0.4995089      1.0084122    
     22000   0.98732242     0.49316755    -1.1207578      0.027087591    0.49316483     1.0225774    
     22100   1.0196011      0.50929075    -1.1068387      0.01595682     0.50928809     1.0004717    
     22200   1.0145763      0.50678084    -1.1164543      0.021903643    0.50677816     1.0144797    
     22300   1.0598425      0.52939131    -1.1294332      0.031818236    0.52938853     1.0322648    
     22400   1.0437612      0.5213587     -1.1227499      0.033822217    0.52135597     1.0266638    
     22500   1.027984       0.513478      -1.1160847      0.014866746    0.5134753      1.0207524    
     22600   1.0302412      0.51460549    -1.1224403      0.018221127    0.51460279     1.0148883    
     22700   1.0166152      0.50779927    -1.1267153      0.031752594    0.50779652     1.0123386    
     22800   0.96887759     0.48395436    -1.1344213      0.032914046    0.48395166     1.0055898    
     22900   1.0514862      0.52521736    -1.1272703      0.053838445    0.52521466     1.0267673    
     23000   1.0312581      0.51511343    -1.1313102      0.03252794     0.51511062     1.0393002    
     23100   1.0217591      0.51036867    -1.1319164      0.031223966    0.51036598     1.0096196    
     23200   1.0091653      0.50407808    -1.1330535      0.016016257    0.50407542     0.99909388   
     23300   0.97915837     0.4890896     -1.1573584      0.031327043    0.48908697     0.99337186   
     23400   1.0183118      0.50864675    -1.1513125      0.0091276113   0.50864402     1.0187984    
     23500   0.99710988     0.49805638    -1.1636378      0.012312851    0.49805374     0.98546736   
     23600   1.0604361      0.52968785    -1.1480631      0.014281492    0.52968511     1.0391728    
     23700   0.98344836     0.49123245    -1.151224       0.022371425    0.49122981     0.98924459   
     23800   1.0083954      0.50369348    -1.1544475      0.025882764    0.50369086     1.0047242    
     23900   1.0118496      0.50541888    -1.1546955      0.024828904    0.50541621     1.0186109    
     24000   1.0240334      0.5115047     -1.1503608      0.012618063    0.51150206     1.0055928    
     24100   1.031668       0.51531817    -1.147135       0.031521794    0.51531542     1.0248981    
     24200   0.96833201     0.48368184    -1.1522706      0.0049844107   0.48367921     0.97618915   
     24300   1.0322518      0.51560979    -1.1604516      0.034984853    0.5156071      1.010588     
     24400   1.0454836      0.52221907    -1.1491469      0.025185963    0.52221634     1.0216543    
     24500   1.0166676      0.50782545    -1.1548746      0.032846384    0.50782269     1.0288625    
     24600   1.0266195      0.51279643    -1.1423629      0.026086027    0.51279362     1.042791     
     24700   0.98701284     0.49301291    -1.1526153      0.046435372    0.49301012     1.0165885    
     24800   0.9942652      0.49663547    -1.1590321      0.019039087    0.49663279     0.99763843   
     24900   1.0089351      0.50396309    -1.1540074      0.0045168209   0.50396042     1.0160813    
     25000   0.99393594     0.496471      -1.1568749      0.017346828    0.4964683      1.0135698    
     25100   1.0177494      0.50836582    -1.1496711      0.017238674    0.50836319     1.0177926    
     25200   1.0643991      0.53166735    -1.152636       0.021649766    0.53166472     1.0199452    
     25300   1.0628239      0.53088055    -1.1596421      0.035647698    0.53087779     1.0334715    
     25400   0.96580086     0.48241753    -1.1661359      0.016834464    0.48241479     1.0022893    
     25500   1.0154023      0.50719344    -1.157891       0.019574688    0.50719075     1.0153724    
     25600   0.97121549     0.48512214    -1.1582412      0.025164489    0.48511948     0.98506632   
     25700   1.044452       0.52170376    -1.1650323      0.010663764    0.52170102     1.0376819    
     25800   1.0071757      0.50308427    -1.1599565      0.016500238    0.50308158     1.023927     
     25900   1.0382143      0.51858802    -1.1748272      0.031301567    0.51858533     1.0253763    
     26000   0.99907962     0.49904027    -1.1581003      0.037197859    0.49903756     1.0040033    
     26100   0.97797616     0.48849909    -1.1596019      0.038599247    0.48849641     0.98512731   
     26200   1.0579372      0.52843961    -1.1659545      0.019426225    0.5284369      1.0141794    
     26300   0.92828504     0.46367838    -1.1679377      0.023186697    0.46367588     0.94999896   
     26400   1.0293047      0.51413772    -1.1529217      0.0041908498   0.51413503     1.0104027    
     26500   0.95078894     0.47491907    -1.1513225      0.011696864    0.47491644     0.98126584   
     26600   1.004011       0.5015035     -1.1516197      0.035620115    0.50150078     1.0088756    
     26700   1.0155917      0.50728803    -1.1445877      0.031988209    0.50728531     1.0071448    
     26800   1.0311162      0.51504254    -1.1550531      0.018757065    0.51503984     1.0094518    
     26900   1.0248197      0.51189745    -1.1593027      0.022991673    0.51189466     1.0241325    
     27000   1.0072163      0.50310452    -1.1405308      0.0042650128   0.50310175     1.0297199    
     27100   0.95790663     0.47847436    -1.1492802      0.033922187    0.47847169     0.98093532   
     27200   1.032103       0.51553545    -1.1599506      0.029354795    0.51553267     1.0247413    
     27300   0.99238661     0.49569711    -1.1733462      0.016394263    0.49569443     1.0031769    
     27400   1.0103484      0.50466903    -1.1725329     -0.0024087839   0.50466642     0.99342609   
     27500   1.0421067      0.52053228    -1.1811877      0.028515495    0.52052953     1.0343253    
     27600   0.99547846     0.49724149    -1.1958618      0.0067356465   0.49723879     1.0020237    
     27700   1.038091       0.51852644    -1.1896275      0.014986692    0.51852367     1.0434788    
     27800   0.98157444     0.49029643    -1.1975118      0.038185365    0.4902938      0.99509649   
     27900   1.021618       0.51029821    -1.1962496      0.021332051    0.51029555     1.0122843    
     28000   1.0190642      0.50902256    -1.1893605      0.004178982    0.50901989     1.0082781    
     28100   1.0171093      0.50804611    -1.1744109      0.0046565231   0.50804347     0.99745743   
     28200   1.0043032      0.50164945    -1.1812399      0.03281882     0.50164677     1.0116202    
     28300   1.0315719      0.51527015    -1.187343       0.031078076    0.51526747     0.99961102   
     28400   1.0611451      0.53004198    -1.2036496      0.035917146    0.53003925     1.029135     
     28500   1.0189186      0.50894982    -1.1856753      0.01937944     0.50894714     1.004991     
     28600   1.0149964      0.50699071    -1.1829607      0.023644931    0.50698804     1.0015272    
     28700   1.0020316      0.50051476    -1.1811769      0.03013981     0.5005121      0.99539126   
     28800   1.0326865      0.51582692    -1.190844       0.036251316    0.51582419     1.0220952    
     28900   1.0367338      0.51784852    -1.1924625      0.033151266    0.51784588     1.0027148    
     29000   0.99311751     0.49606219    -1.1856784      0.030404407    0.49605952     1.0052837    
     29100   1.0199296      0.50945483    -1.2060731      0.018285491    0.50945218     1.0066103    
     29200   0.99972745     0.49936386    -1.19521        0.029228362    0.49936116     1.0010388    
     29300   1.0373276      0.51814513    -1.1980304      0.035661505    0.51814241     1.0336171    
     29400   0.99803627     0.49851912    -1.2128887      0.030470005    0.49851642     1.0097078    
     29500   1.0188289      0.50890503    -1.1887585      0.010140846    0.50890237     0.99796659   
     29600   1.0060096      0.50250182    -1.1907331      0.031516544    0.50249911     1.0073727    
     29700   1.03533        0.51714735    -1.2019197      0.0354964      0.51714462     1.025323     
     29800   1.0537415      0.52634387    -1.2056336      0.032645957    0.52634111     1.0481633    
     29900   1.0151935      0.50708918    -1.2049311      0.01592285     0.50708635     1.0324049    
     30000   1.0652094      0.5320721     -1.2010618      0.028535378    0.53206945     1.0179655    
     30100   0.99576615     0.49738519    -1.1943993      0.019295821    0.49738255     0.99345415   
     30200   1.0598385      0.52938933    -1.1898212      0.0084033483   0.52938659     1.0257207    
     30300   0.98630568     0.49265969    -1.1890535      0.039120387    0.49265702     0.99266506   
     30400   1.0019636      0.50048082    -1.1954501      0.023793209    0.50047805     1.0235228    
     30500   1.0585008      0.52872113    -1.1897395      0.040049566    0.52871843     1.0235123    
     30600   1.0249197      0.51194737    -1.1931052      0.027137906    0.51194461     1.0096451    
     30700   1.0039705      0.50148326    -1.1996403      0.04768479     0.50148052     1.0217064    
     30800   1.0063756      0.50268463    -1.2104454      0.017395405    0.50268196     1.0096644    
     30900   1.0097704      0.50438033    -1.2287829      0.023746624    0.50437767     1.0024751    
     31000   1.0194825      0.50923149    -1.2187226      0.036111621    0.50922879     1.0164309    
     31100   0.9784016      0.4887116     -1.2117748      0.0081651553   0.48870881     1.0205029    
     31200   1.0035462      0.50127133    -1.2312278      0.038012382    0.5012686      1.0077298    
     31300   0.99745843     0.49823049    -1.2155696     -0.0039687612   0.49822784     0.99560949   
     31400   1.0298574      0.51441375    -1.2190565      0.016040464    0.51441106     1.0265203    
     31500   1.0322444      0.51560606    -1.2090612      0.033721102    0.51560346     1.0001072    
     31600   0.97413765     0.48658176    -1.2127941      0.03103349     0.48657911     0.99074487   
     31700   1.0249643      0.51196967    -1.2229777      0.034530041    0.51196698     1.0048287    
     31800   1.0045996      0.5017975     -1.216741       0.025792689    0.50179476     1.0176078    
     31900   0.99948713     0.49924382    -1.2067393      0.013800354    0.49924118     0.99270151   
     32000   1.0141748      0.50658031    -1.2233516      0.038162187    0.50657758     1.0235812    
     32100   1.0027011      0.5008492     -1.2235078      0.002805276    0.50084658     0.98873764   
     32200   1.0205859      0.50978266    -1.2323332      0.03230189     0.50978        1.0123355    
     32300   1.0176793      0.50833081    -1.2398606      0.028989208    0.50832811     1.0059951    
     32400   1.0294198      0.51419518    -1.2392856      0.010227582    0.5141924      1.038533     
     32500   1.0307108      0.51484007    -1.238247       0.05566244     0.5148373      1.0259633    
     32600   1.0010685      0.50003371    -1.2557799      0.019761814    0.50003099     1.003179     
     32700   1.0031228      0.50105982    -1.254745       0.024702075    0.50105719     1.0012498    
     32800   1.0029352      0.50096613    -1.2393105      0.019300434    0.50096343     0.99170366   
     32900   1.0361411      0.51755249    -1.2605454      0.036161986    0.51754972     1.0308045    
     33000   1.0069944      0.50299371    -1.2415794      0.02517257     0.50299104     0.99543602   
     33100   0.99011539     0.49456264    -1.2432693      0.045227853    0.49456006     0.97050456   
     33200   0.98068179     0.48985055    -1.2517273      0.035156356    0.48984784     1.0064866    
     33300   0.99771651     0.49835939    -1.2532601      0.014959198    0.49835679     0.98413802   
     33400   1.0285037      0.51373762    -1.2526853      0.013492632    0.51373493     1.009573     
     33500   0.9715462      0.48528733    -1.2542164      0.01436647     0.48528471     0.98689303   
     33600   1.0338801      0.51642312    -1.2510904      0.029019886    0.51642034     1.0356296    
     33700   1.0111573      0.50507308    -1.2538123      0.038262689    0.50507039     1.0251463    
     33800   1.0491327      0.5240418     -1.2373292      0.043543886    0.52403908     1.0272797    
     33900   1.0191536      0.50906722    -1.2465311      0.029386171    0.50906445     1.0290885    
     34000   1.043384       0.52117033    -1.2418017      0.031246637    0.52116761     1.0131654    
     34100   0.99042952     0.49471954    -1.2431213      0.019190666    0.49471683     0.99299417   
     34200   1.0014742      0.50023636    -1.2467391      0.011441858    0.50023369     0.99578037   
     34300   1.0054091      0.50220185    -1.2709926      0.0082431581   0.50219922     0.99356385   
     34400   0.99216433     0.49558608    -1.2533584      0.033452971    0.49558338     0.99617597   
     34500   0.96954796     0.48428921    -1.2818897      0.02124899     0.48428657     0.98963444   
     34600   0.9911286      0.49506874    -1.2748922      0.031031698    0.49506618     0.98279387   
     34700   1.0241159      0.51154591    -1.2728377      0.034981494    0.51154315     1.0282878    
     34800   1.0165388      0.50776114    -1.2616067      0.0039856058   0.50775846     1.0278044    
     34900   1.0120398      0.50551388    -1.2734205      0.015998442    0.50551115     1.0105176    
     35000   1.0165577      0.50777057    -1.2666683      0.0026537129   0.50776783     1.0180108    
     35100   1.0290223      0.51399662    -1.2845154      0.031483077    0.51399386     1.0422931    
     35200   0.98155936     0.4902889     -1.2714038      0.039012669    0.49028624     0.98733306   
     35300   1.0274681      0.5132203     -1.2826608      0.03302575     0.51321757     1.0244988    
     35400   1.005606       0.50230017    -1.2717283      0.030860336    0.50229755     0.99103376   
     35500   1.0059959      0.50249494    -1.2871126      0.032487193    0.50249222     1.0046584    
     35600   0.96733683     0.48318474    -1.2891056      0.013602161    0.48318214     0.97498363   
     35700   1.0100467      0.50451835    -1.2878592      0.036140688    0.50451567     1.0128692    
     35800   1.0007576      0.49987842    -1.2791327      0.014315681    0.49987575     1.0016858    
     35900   1.0372917      0.51812718    -1.2945589      0.026001727    0.51812446     1.0161482    
     36000   1.0475976      0.52327499    -1.2940378      0.015283321    0.52327215     1.0566293    
     36100   0.96167711     0.48035772    -1.2906983      0.031152535    0.48035515     0.96319738   
     36200   0.97488908     0.4869571     -1.2864592      0.040489903    0.48695447     0.98255553   
     36300   1.0206151      0.50979726    -1.2944523      0.0053305326   0.50979459     0.99661476   
     36400   1.0160433      0.50751364    -1.2918236      0.011595518    0.50751096     1.0006171    
     36500   1.0042426      0.50161919    -1.3049718      0.035624536    0.50161653     0.99772295   
     36600   1.0371656      0.5180642     -1.2988073      0.021182407    0.51806147     1.0170989    
     36700   1.0432369      0.52109685    -1.3052517      0.027240294    0.5210941      1.02798      
     36800   0.99891587     0.49895848    -1.3110204      0.023651095    0.49895575     1.0133601    
     36900   0.9859641      0.49248907    -1.3210962      0.024194776    0.4924864      1.0032667    
     37000   1.0130401      0.50601355    -1.3066842      0.023126212    0.50601087     0.99655612   
     37100   0.95245576     0.47575165    -1.297815       0.03729475     0.47574905     0.97504211   
     37200   1.0465413      0.52274736    -1.3216043      0.035740371    0.52274467     1.0218711    
     37300   0.98540955     0.49221207    -1.3337666      0.0084424034   0.49220945     0.98619415   
     37400   1.0129957      0.50599135    -1.3169501      0.026332407    0.50598857     1.0213388    
     37500   0.98947497     0.49424275    -1.3103566      0.013629488    0.49424012     0.98422147   
     37600   0.97059974     0.48481457    -1.3263164      0.022494924    0.48481189     0.98716096   
     37700   0.93482099     0.46694308    -1.3280041      0.018148588    0.46694048     0.95670791   
     37800   0.98991827     0.49446418    -1.3188785      0.0085914614   0.49446147     1.0037622    
     37900   1.0388384      0.51889978    -1.3236904      0.031944797    0.518897       1.0430727    
     38000   1.0218544      0.51041627    -1.3353217      0.042550977    0.51041348     1.0330582    
     38100   0.98521294     0.49211387    -1.3297433     -0.00215686     0.49211123     0.99379694   
     38200   0.97503371     0.48702934    -1.326147       0.023526186    0.48702662     0.99518718   
     38300   1.050141       0.52454543    -1.3153625      0.0085309801   0.52454269     1.0399027    
     38400   1.054155       0.52655041    -1.3453043      0.02662429     0.52654768     1.0312669    
     38500   1.0082863      0.503639      -1.3440558      0.03123781     0.50363631     1.0042271    
     38600   1.0399723      0.51946616    -1.349715       0.038336763    0.51946352     1.0020337    
     38700   0.99953933     0.49926989    -1.3429444      0.028239485    0.49926711     1.0237102    
     38800   0.98377323     0.49139473    -1.335464       0.016290946    0.49139206     0.99710674   
     38900   0.99978059     0.49939041    -1.3401294      0.013703502    0.49938767     1.0232186    
     39000   1.0088594      0.50392526    -1.3509273      0.0088121352   0.50392258     1.0141827    
     39100   0.97891408     0.48896759    -1.3369099      0.033422418    0.48896486     1.0092233    
     39200   0.99636003     0.49768183    -1.34588       -0.0026790157   0.49767923     0.98395793   
     39300   1.0080977      0.50354478    -1.3525314      0.010908282    0.50354211     0.9939785    
     39400   1.0293923      0.51418146    -1.3487856      0.036744165    0.51417876     1.0187754    
     39500   0.99687286     0.49793799    -1.3415176      0.0082774824   0.49793525     1.010646     
     39600   0.99049285     0.49475118    -1.3340717      0.031460696    0.49474858     0.99908661   
     39700   1.0247709      0.51187306    -1.3387112      0.012932224    0.51187035     1.0157651    
     39800   1.0270378      0.51300539    -1.3356981      0.02657321     0.51300269     1.0004151    
     39900   1.0428821      0.52091963    -1.3445636      0.0098643768   0.5209168      1.0413713    
     40000   1.0023412      0.50066945    -1.3639931      0.033777754    0.50066674     1.0096448    
     40100   1.006095       0.50254446    -1.3481658      0.020185366    0.50254179     0.9967026    
     40200   0.98613523     0.49257455    -1.3628819      0.021733247    0.49257184     0.99392833   
     40300   1.039704       0.51933213    -1.3458614      0.003300257    0.51932946     1.0129668    
     40400   0.97270234     0.48586482    -1.3543054      0.0092990127   0.48586214     1.0024116    
     40500   0.97643796     0.48773076    -1.3511292      0.013107944    0.48772809     0.99925282   
     40600   1.0148356      0.50691036    -1.3491427      0.017762649    0.50690769     0.99847617   
     40700   1.0018719      0.50043503    -1.3439556      0.0015075818   0.50043239     1.0094952    
     40800   1.0500366      0.5244933     -1.3679865      0.025680662    0.52449055     1.039829     
     40900   1.0007823      0.49989074    -1.3584705      0.0061356475   0.49988808     1.0024474    
     41000   1.0406674      0.51981336    -1.3847915      0.027880622    0.51981062     1.0203873    
     41100   1.0299475      0.5144588     -1.3784007      0.0335658      0.51445604     1.028573     
     41200   1.0066355      0.50281443    -1.3999468      0.0099253693   0.50281176     1.0038014    
     41300   0.99622759     0.49761568    -1.3928348      0.014217715    0.49761299     0.99296953   
     41400   1.0068272      0.50291021    -1.3826658      0.027006979    0.50290745     1.0131611    
     41500   1.0160859      0.50753489    -1.3736444      0.026611876    0.50753219     1.0019794    
     41600   1.0314479      0.51520821    -1.3773361      0.014173006    0.51520561     0.98579575   
     41700   0.96055888     0.47979916    -1.3996609      0.0011793085   0.47979657     0.96345756   
     41800   0.99526154     0.49713314    -1.3948481     -0.03177596     0.49713042     1.0077344    
     41900   1.0173006      0.50814165    -1.4088509      0.032461775    0.50813895     1.0112142    
     42000   0.99026482     0.49463728    -1.4103983      0.030258884    0.49463454     1.0187209    
     42100   1.0087101      0.50385068    -1.3968002      0.030850515    0.50384802     1.001344     
     42200   0.99613584     0.49756985    -1.4084863      0.024074316    0.49756713     1.0095704    
     42300   1.0678566      0.53339437    -1.4118186      0.014285788    0.53339153     1.0525956    
     42400   1.003824       0.5014101     -1.391259       0.031334711    0.50140739     1.0064421    
     42500   1.0158066      0.50739537    -1.4056317      0.040144003    0.50739262     1.0262751    
     42600   0.98718213     0.49309748    -1.4022103      0.016501975    0.49309476     1.0070261    
     42700   0.98896055     0.4939858     -1.4071355      0.012877885    0.49398313     0.99185505   
     42800   1.0046594      0.50182736    -1.3987749      0.024921559    0.50182477     1.0049384    
     42900   1.0070203      0.50300666    -1.4016979     -0.0016273017   0.50300392     1.0055118    
     43000   1.0349761      0.51697058    -1.4179345      0.019882308    0.5169679      1.0144032    
     43100   0.98204268     0.49053032    -1.4168271      0.033886436    0.49052769     0.98968958   
     43200   0.98555359     0.49228402    -1.3982937      0.039384401    0.49228146     0.97289021   
     43300   1.0093941      0.50419237    -1.4128394      0.019288311    0.50418974     0.9956592    
     43400   0.99816004     0.49858094    -1.4007954      0.033150094    0.4985783      1.0000234    
     43500   1.0146071      0.50679622    -1.4076916      0.029114822    0.50679356     1.0014328    
     43600   1.0152832      0.50713398    -1.421043       0.016894984    0.50713129     1.007523     
     43700   1.0023047      0.50065119    -1.41975        0.029303491    0.50064861     0.98263242   
     43800   0.98205365     0.4905358     -1.4037212      0.0039538771   0.49053316     0.98942946   
     43900   0.99801334     0.49850766    -1.4120716      0.022141963    0.49850497     1.0147005    
     44000   0.97434259     0.48668412    -1.4201525      0.023008512    0.48668152     0.96586441   
     44100   1.0248624      0.51191877    -1.4251719      0.050160296    0.51191605     1.0147759    
     44200   1.0053686      0.50218164    -1.422452       0.012624769    0.50217898     0.9926414    
     44300   1.0374818      0.51822213    -1.404544       0.020175713    0.51821947     1.023039     
     44400   0.98927767     0.4941442     -1.4222778      0.010963202    0.49414152     1.0042647    
     44500   1.0407542      0.51985672    -1.4252302      0.046990096    0.51985409     1.0017356    
     44600   1.024729       0.51185212    -1.4046855      0.028845155    0.51184936     1.0251464    
     44700   1.0473344      0.52314353    -1.4113116      0.0010769781   0.52314072     1.0433992    
     44800   1.0182581      0.50861992    -1.4117066      0.032744516    0.50861721     1.0064248    
     44900   1.0050227      0.50200884    -1.422396       0.037092382    0.50200613     1.0046629    
     45000   1.0180792      0.50853054    -1.4161325     -0.004282045    0.50852779     1.0182859    
     45100   1.0331489      0.51605786    -1.4132498      0.029374932    0.51605516     1.0146984    
     45200   1.0172874      0.50813507    -1.4183632      0.041680353    0.50813239     1.0029214    
     45300   0.9969422      0.49797263    -1.3998411      0.027827231    0.49796999     0.9961449    
     45400   1.0324085      0.51568803    -1.4241828      0.02136708     0.51568531     1.033607     
     45500   1.0099177      0.50445388    -1.4077175      0.05323197     0.50445109     1.0223839    
     45600   1.0016565      0.50032741    -1.4131346      0.023438766    0.50032471     1.0029258    
     45700   1.0023288      0.50066326    -1.432258       0.041613508    0.50066062     1.001822     
     45800   0.98167224     0.49034528    -1.4187102      0.014303844    0.4903426      0.9918435    
     45900   1.0502727      0.52461124    -1.4185663     -0.0052609553   0.52460849     1.0405038    
     46000   1.026274       0.51262388    -1.4245896      0.017679154    0.51262115     1.0200736    
     46100   0.99531145     0.49715807    -1.4083823      0.0054208547   0.49715533     1.0143595    
     46200   0.99016059     0.49458522    -1.4082879      0.02276914     0.49458265     0.98497482   
     46300   1.0217133      0.51034577    -1.4112393      0.025996275    0.51034308     1.0041745    
     46400   1.0085204      0.50375595    -1.4214545      0.02540173     0.50375334     0.9905992    
     46500   1.0253841      0.51217936    -1.4110487      0.048070469    0.51217664     1.0139343    
     46600   1.0367099      0.51783661    -1.408185       0.0078968078   0.5178339      1.0233086    
     46700   0.99492348     0.49696428    -1.4108655      0.011713738    0.49696158     1.0139734    
     46800   1.0011711      0.50008498    -1.4099919      0.017352614    0.50008231     0.99976663   
     46900   1.0045313      0.50176338    -1.4242455      0.014570763    0.50176068     1.0144684    
     47000   1.0310945      0.51503172    -1.4217439      0.02948213     0.51502904     1.0134125    
     47100   1.0056438      0.50231906    -1.4102307      0.03724813     0.50231643     0.98281793   
     47200   1.0125191      0.50575329    -1.4323376      0.025130576    0.50575046     1.0378949    
     47300   1.0197221      0.5093512     -1.4301925      0.030216734    0.50934849     1.0124897    
     47400   0.98074943     0.48988434    -1.4329499      0.025165597    0.48988174     0.9676301    
     47500   1.0323427      0.51565519    -1.4381579      0.030745057    0.51565248     1.0185412    
     47600   0.99843363     0.4987176     -1.4483691      0.036244129    0.49871489     1.0039532    
     47700   1.0448993      0.52192722    -1.4338176      0.019932031    0.52192446     1.0320519    
     47800   1.0194481      0.50921434    -1.4362703      0.017470958    0.50921169     1.0107384    
     47900   1.038032       0.51849701    -1.4514824      0.020685491    0.51849423     1.0218308    
     48000   0.99494023     0.49697265    -1.4356749      0.018232294    0.49697        0.99439142   
     48100   0.99524403     0.49712439    -1.446354       0.032641865    0.49712177     0.99795059   
     48200   0.99419209     0.49659895    -1.4355086      0.030234685    0.49659619     1.0107746    
     48300   0.97511336     0.48706912    -1.4287464      0.018061736    0.4870665      0.9821029    
     48400   0.95801107     0.47852653    -1.4348204      0.031842561    0.47852392     0.98859195   
     48500   1.0930937      0.5460003     -1.4201691      0.012290648    0.54599755     1.0425716    
     48600   1.0260846      0.51252928    -1.4204627      0.027375276    0.51252659     1.029503     
     48700   1.0125198      0.50575364    -1.4206182      0.011149396    0.50575097     1.0027738    
     48800   0.98142395     0.49022126    -1.426374       0.011695272    0.49021856     0.99392636   
     48900   0.95824335     0.47864255    -1.4156142      0.026340112    0.47864        0.96571307   
     49000   0.99040228     0.49470594    -1.4253096      0.0075650762   0.49470323     1.0099494    
     49100   1.0179322      0.50845712    -1.4192749      0.023878345    0.50845444     0.99871948   
     49200   1.0328041      0.51588567    -1.4201644     -0.0079805109   0.51588301     0.99030001   
     49300   1.0251726      0.51207369    -1.4226843      0.011117617    0.51207094     1.0226422    
     49400   1.0331629      0.51606488    -1.4183393      0.019117568    0.51606207     1.0410764    
     49500   1.004347       0.50167134    -1.4342936      0.023837338    0.5016687      1.0082756    
     49600   0.98616449     0.49258916    -1.4224966      0.027307129    0.49258653     0.98715881   
     49700   1.0390723      0.51901663    -1.4353909      0.024154546    0.51901396     1.0075397    
     49800   1.045187       0.5220709     -1.4343211      0.025665755    0.52206817     1.0319455    
     49900   1.0295533      0.51426185    -1.4377221      0.00059707024  0.51425922     0.99380838   
     50000   0.99601551     0.49750975    -1.4365219      0.029191293    0.49750714     0.99062059   
     50100   0.99992365     0.49946186    -1.4521587      0.038146825    0.49945906     1.0230717    
     50200   0.9706142      0.48482179    -1.440853       0.0086470267   0.48481917     0.98726518   
     50300   1.0373082      0.51813544    -1.4430883      0.013620898    0.5181327      1.0191785    
     50400   1.0199632      0.50947164    -1.4464511      0.026969356    0.50946904     0.99500377   
     50500   0.9966551      0.49782922    -1.4676805      0.010371466    0.49782658     0.99341444   
     50600   1.0577677      0.52835497    -1.4783972      0.024280404    0.5283522      1.0453174    
     50700   1.0170817      0.50803233    -1.4519312      0.030033773    0.50802959     1.0316405    
     50800   1.0327793      0.51587326    -1.4615859      0.011398121    0.51587045     1.0422413    
     50900   0.94139074     0.47022468    -1.4419968      0.022373867    0.47022207     0.97875667   
     51000   0.97254997     0.48578871    -1.4496884      0.032321111    0.485786       1.0016879    
     51100   1.0945868      0.54674609    -1.4494525      0.021890276    0.54674332     1.0543459    
     51200   1.0316759      0.5153221     -1.4667102      0.029282601    0.51531937     1.0266668    
     51300   1.0012204      0.50010957    -1.4541565      0.0098784529   0.50010689     1.0149166    
     51400   1.0096063      0.50429833    -1.4574488      0.022733958    0.50429581     0.97298876   
     51500   0.99566355     0.49733394    -1.4791861      0.0046793377   0.49733135     0.99345674   
     51600   1.0186974      0.50883937    -1.4649341      0.016914663    0.50883668     1.0258204    
     51700   1.0404351      0.51969733    -1.4640272      0.019224576    0.51969463     0.99921414   
     51800   1.0037726      0.5013844     -1.4642645      0.0054506756   0.50138175     1.0053565    
     51900   0.99302371     0.49601534    -1.4536966      0.013910713    0.49601263     1.0127565    
     52000   0.97966576     0.48934305    -1.4514878      0.023202775    0.48934037     1.0016426    
     52100   0.98611385     0.49256387    -1.4498875      0.036539086    0.49256118     0.99047554   
     52200   1.0489278      0.52393942    -1.4505142      0.015386057    0.52393668     1.0234696    
     52300   0.95514261     0.47709374    -1.4539032      0.018814538    0.47709112     0.97127566   
     52400   1.0442006      0.52157821    -1.4423064      0.020774354    0.5215754      1.0394868    
     52500   0.98585614     0.49243514    -1.4508751      0.019039758    0.49243242     1.0021727    
     52600   1.0398016      0.51938091    -1.4439766     -0.0080093894   0.51937826     1.0210049    
     52700   1.0033244      0.50116054    -1.4697061      0.020489562    0.50115789     0.98141111   
     52800   1.0367344      0.51784886    -1.4799398      0.021717565    0.5178461      1.0420091    
     52900   1.0229254      0.51095123    -1.4800121      0.027373897    0.51094856     1.0020601    
     53000   0.98864629     0.49382882    -1.4874897      0.031936455    0.49382616     1.0042847    
     53100   1.031052       0.51501047    -1.4920034      0.014215577    0.51500785     1.0047942    
     53200   1.0115374      0.50526292    -1.5014492      0.023479663    0.50526024     1.0096268    
     53300   1.019738       0.50935915    -1.5022131      0.040937945    0.50935655     0.98546921   
     53400   1.0000462      0.49952307    -1.4984978      0.036616518    0.49952039     1.0081053    
     53500   1.0273499      0.51316128    -1.4976458      0.019139344    0.51315856     1.0240758    
     53600   1.0395347      0.51924758    -1.5016553      0.02494523     0.51924486     1.0243121    
     53700   1.0619829      0.53046048    -1.5001116      0.03950056     0.5304578      1.0141559    
     53800   0.99626595     0.49763484    -1.5077535      0.016194964    0.49763223     0.98739268   
     53900   0.98882949     0.49392033    -1.510666       0.013633764    0.4939177      0.99294417   
     54000   0.97223077     0.48562927    -1.5063682      0.012879642    0.48562667     0.97374286   
     54100   1.0277975      0.51338486    -1.5165956     -0.011481411    0.51338208     1.024935     
     54200   1.0191262      0.50905352    -1.5138955      0.020940487    0.50905081     1.0072309    
     54300   1.0327502      0.51585872    -1.5284762      0.02275549     0.51585597     1.0347117    
     54400   0.98993174     0.49447091    -1.5268765      0.0071346478   0.49446828     0.98839274   
     54500   1.0785121      0.53871679    -1.5177949      0.025076595    0.53871398     1.04684      
     54600   1.0189432      0.5089621     -1.5168272      0.021615235    0.50895946     0.99817337   
     54700   1.0529703      0.52595866    -1.5323615      0.038080346    0.52595593     1.0244088    
     54800   0.96832058     0.48367613    -1.5479026      0.02372843     0.48367354     0.96857609   
     54900   0.97213235     0.48558011    -1.5525412      0.019370177    0.48557742     0.99191149   
     55000   0.96253342     0.48078544    -1.5338398      0.014201692    0.48078275     1.010588     
     55100   1.0065582      0.50277581    -1.5291119      0.013479168    0.50277304     1.017284     
     55200   1.0004986      0.49974903    -1.5322721      0.05101824     0.49974636     0.99141452   
     55300   0.99642265     0.49771312    -1.5249433      0.0071744005   0.49771046     1.000637     
     55400   1.0361492      0.51755651    -1.5263786      0.027226115    0.51755371     1.0433336    
     55500   0.98151914     0.49026881    -1.5120845      0.0093087459   0.49026619     0.9883263    
     55600   0.9792702      0.48914546    -1.5269906      0.016027439    0.48914279     0.99243663   
     55700   1.0073178      0.50315523    -1.5351481      0.039534132    0.50315249     1.0167677    
     55800   1.0132003      0.50609357    -1.5070557      0.041664732    0.50609091     0.9896475    
     55900   0.9981994      0.4986006     -1.4960845     -0.0072939956   0.49859793     1.0056494    
     56000   0.97590364     0.48746387    -1.5005448      0.025067563    0.48746122     0.99292751   
     56100   0.97978958     0.48940489    -1.5411947      0.021613306    0.4894022      1.0025062    
     56200   1.0269672      0.51297012    -1.5067695      0.02046959     0.51296744     1.0127563    
     56300   1.0064733      0.50273343    -1.5219922      0.043381017    0.50273068     1.0172354    
     56400   1.005662       0.50232818    -1.5035015      0.037421215    0.5023255      0.9951412    
     56500   0.99270355     0.49585542    -1.5015999      0.016492615    0.49585267     1.0168716    
     56600   1.0194383      0.50920942    -1.5073241      0.030809086    0.50920686     0.99285263   
     56700   0.99458466     0.49679504    -1.5125042      0.019243861    0.49679232     1.0165177    
     56800   1.0435574      0.52125692    -1.5003932      0.020444611    0.52125423     1.0090306    
     56900   1.0071999      0.50309634    -1.5078756      0.049196561    0.50309362     1.0102822    
     57000   1.0290947      0.51403279    -1.5008835      0.0031561196   0.51403012     1.0100892    
     57100   0.97642961     0.48772659    -1.4893341      0.025666699    0.48772389     0.9861264    
     57200   1.0335532      0.51625984    -1.5013057      0.040304467    0.5162571      1.0294777    
     57300   0.99417118     0.4965885     -1.4953595      0.018678925    0.49658578     1.0126912    
     57400   0.98964752     0.49432894    -1.5107877      0.010310342    0.49432629     1.001275     
     57500   1.0421415      0.52054968    -1.5039345      0.017901221    0.52054689     1.043375     
     57600   1.0375874      0.51827492    -1.4864261      0.009840121    0.51827208     1.0308593    
     57700   1.0093583      0.50417448    -1.4989704      0.031330951    0.50417173     1.0266142    
     57800   1.0260723      0.51252309    -1.5090374      0.020171268    0.51252039     1.0125174    
     57900   1.0041179      0.5015569     -1.5060428      0.028096339    0.50155422     0.99213027   
     58000   1.0149769      0.50698097    -1.5170054      0.030061793    0.50697832     0.99954585   
     58100   1.0164739      0.5077287     -1.5227426      0.024708962    0.50772602     1.0107921    
     58200   1.0736745      0.53630042    -1.5075601      0.033617917    0.53629765     1.0478706    
     58300   0.99282457     0.49591588    -1.5069295      0.015561751    0.49591324     0.99505976   
     58400   1.020109       0.50954447    -1.5349925      0.021515526    0.5095417      1.0201796    
     58500   1.0158263      0.50740525    -1.5322923      0.023677894    0.50740254     1.0138874    
     58600   1.0639233      0.53142971    -1.517328       0.007069312    0.53142699     1.0344895    
     58700   1.0274135      0.51319304    -1.544811       0.029509318    0.51319037     1.0011137    
     58800   0.99838154     0.49869158    -1.5399449      0.031719019    0.4986889      1.01147      
     58900   1.0371387      0.51805077    -1.5244106      0.01428828     0.51804798     1.0391461    
     59000   1.0204176      0.50969858    -1.5189687     -0.010621236    0.50969592     1.0078879    
     59100   1.0327062      0.51583673    -1.5326554      0.027757448    0.51583398     1.0395575    
     59200   1.0226956      0.51083643    -1.4964081      0.041150921    0.51083377     1.0115794    
     59300   1.001017       0.50000801    -1.5200366      0.038060261    0.50000531     1.0194501    
     59400   0.95844259     0.47874208    -1.529583       0.017432443    0.47873944     0.99321308   
     59500   1.0235484      0.51126245    -1.5280775      0.026723639    0.51125978     1.0036076    
     59600   0.97264642     0.48583689    -1.5362196      0.0062159431   0.48583426     0.98884532   
     59700   1.0359651      0.51746458    -1.5391466      0.037649647    0.51746176     1.0442379    
     59800   1.0704714      0.53470044    -1.5459334      0.040345526    0.53469765     1.0469008    
     59900   0.98861665     0.49381402    -1.5596669      0.034396472    0.49381128     1.0012218    
     60000   0.99804035     0.49852115    -1.555113       0.031782055    0.49851846     0.99826829   
     60100   1.0469132      0.52293312    -1.5601131      0.014325288    0.52293031     1.0479946    
     60200   0.98602355     0.49251876    -1.5653682      0.032538446    0.49251603     1.0050246    
     60300   1.0086688      0.50383007    -1.5589059      0.0078529205   0.50382735     1.0062802    
     60400   0.99307251     0.49603972    -1.542033       0.022111136    0.49603706     0.99409652   
     60500   1.0233929      0.51118476    -1.53993        0.031965604    0.51118205     1.0151914    
     60600   1.0073312      0.50316196    -1.558933       0.01339719     0.50315921     1.021653     
     60700   0.93991934     0.46948971    -1.5420442      0.013719212    0.46948705     0.97383705   
     60800   1.0407096      0.51983443    -1.5515877      0.022442588    0.51983171     1.0296434    
     60900   1.0251611      0.51206799    -1.549574       0.0078328152   0.5120653      1.0092112    
     61000   1.0237302      0.51135326    -1.5503879      0.038187875    0.51135052     1.0345564    
     61100   0.99760536     0.49830388    -1.5345353      0.020010175    0.49830124     0.99165383   
     61200   1.0308027      0.51488596    -1.5588015      0.033078977    0.5148832      1.0349191    
     61300   0.97521218     0.48711849    -1.5564061      0.024608366    0.48711579     0.98258608   
     61400   0.98125304     0.4901359     -1.5718195      0.033558339    0.4901332      1.0057965    
     61500   0.98743866     0.49322561    -1.5839566      0.024634561    0.49322289     1.0133164    
     61600   1.0196228      0.50930161    -1.5930844      0.012436859    0.50929895     1.0083863    
     61700   1.0253007      0.5121377     -1.5905095      0.027226737    0.51213496     1.0303741    
     61800   1.0436469      0.52130164    -1.5929453      0.019455725    0.52129879     1.0545884    
     61900   1.038497       0.51872926    -1.5988865      0.006878947    0.51872652     1.0323496    
     62000   1.0037368      0.50136655    -1.5908061      0.020765636    0.50136388     1.0004858    
     62100   0.99511272     0.4970588     -1.598632       0.014417788    0.49705616     1.0023141    
     62200   1.0021866      0.50059221    -1.5893954      0.029552439    0.5005896      0.99330414   
     62300   1.0173687      0.50817566    -1.5882064      0.0061422835   0.50817296     1.0121521    
     62400   1.0302554      0.51461255    -1.6018632      0.0083278102   0.51460978     1.0447869    
     62500   1.022038       0.510508      -1.6000478      0.012398988    0.51050542     0.98450368   
     62600   1.0327816      0.51587439    -1.6077149      0.0068159066   0.51587166     1.012079     
     62700   1.0226305      0.51080395    -1.6063213      0.010116657    0.51080123     1.015402     
     62800   1.0445299      0.52174268    -1.6242627      0.013226865    0.52173987     1.0476922    
     62900   1.0042636      0.50162967    -1.598258       0.016679439    0.50162698     1.0170382    
     63000   0.9772963      0.4881595     -1.5942024     -0.005651347    0.48815685     0.98625999   
     63100   1.0286828      0.51382706    -1.5966689     -0.00018900089  0.51382437     1.0014645    
     63200   1.043518       0.52123726    -1.578779      -0.0046995514   0.52123456     1.0170094    
     63300   1.0332933      0.51613       -1.5935111      0.020687042    0.51612718     1.0531246    
     63400   1.0095278      0.50425915    -1.5924159      0.039006126    0.50425651     0.98845382   
     63500   1.0216574      0.51031787    -1.5777606      0.031360361    0.51031513     1.018436     
     63600   1.0506092      0.5247793     -1.560897       0.016752694    0.52477653     1.0361804    
     63700   1.0169096      0.50794637    -1.5674036      0.0090050768   0.50794367     1.0041941    
     63800   1.0190482      0.50901459    -1.5681164      0.0094886719   0.50901193     0.99929999   
     63900   1.0185817      0.50878155    -1.5858039      0.019714043    0.50877893     0.9957882    
     64000   0.98441059     0.49171309    -1.5764819      0.026763471    0.49171052     0.9697072    
     64100   1.025548       0.51226122    -1.5690689      0.013739123    0.51225841     1.0424253    
     64200   1.0001455      0.49957266    -1.5625311      0.022513152    0.49957003     0.99227451   
     64300   0.97729645     0.48815958    -1.5940506      0.011395086    0.48815692     0.99303901   
     64400   0.99001529     0.49451264    -1.581583       0.029059565    0.49451004     0.98070779   
     64500   1.041531       0.52024473    -1.5731747     -0.0095003433   0.52024206     1.0225872    
     64600   0.98583544     0.4924248     -1.5745872      0.016256598    0.49242212     1.0007256    
     64700   1.0005641      0.49978174    -1.5889756      0.010748682    0.49977902     1.0110163    
     64800   0.96221508     0.48062643    -1.57597        0.02642337     0.48062378     0.99173888   
     64900   1.0307677      0.51486847    -1.5925304      0.017229369    0.51486572     1.0205302    
     65000   0.97943729     0.48922893    -1.5597232      0.017547114    0.48922628     0.98623212   
     65100   1.0108777      0.50493343    -1.587223      -0.0018560313   0.50493074     1.0021117    
     65200   1.019914       0.50944705    -1.586202      -0.0048115546   0.50944431     1.01844      
     65300   1.0908114      0.54486028    -1.5890546      0.016604541    0.54485757     1.0317824    
     65400   0.99471894     0.49686211    -1.5939409      0.041383722    0.49685939     1.0086144    
     65500   1.0341322      0.51654902    -1.573144       0.027278613    0.51654622     1.0290403    
     65600   1.0074653      0.5032289     -1.5678113      0.033017447    0.50322619     1.0112602    
     65700   1.0066994      0.50284636    -1.5717185     -0.01319519     0.50284362     1.0345029    
     65800   0.9966222      0.49781279    -1.5538627      0.031334541    0.49781007     1.0104304    
     65900   0.94685676     0.47295495    -1.5564728      0.044643858    0.47295233     0.98183691   
     66000   1.0001057      0.49955279    -1.5634276      0.00094008919  0.49955007     1.0084429    
     66100   1.032325       0.51564632    -1.5659215      0.045075314    0.51564349     1.0397524    
     66200   0.99021362     0.4946117     -1.5669703      0.012302535    0.49460903     1.0066272    
     66300   0.99592208     0.49746308    -1.5763801      0.01583068     0.49746039     1.0046846    
     66400   1.0589502      0.52894564    -1.5713901      0.0081696732   0.52894289     1.0348718    
     66500   1.0238149      0.51139552    -1.5700413      0.0086281784   0.51139276     1.0159661    
     66600   1.0806332      0.53977629    -1.5592807      0.021582502    0.53977342     1.066788     
     66700   0.99947044     0.49923549    -1.5566294      0.01561043     0.49923279     0.9981702    
     66800   1.0468495      0.52290131    -1.5688018      0.041333199    0.52289852     1.046188     
     66900   0.99212299     0.49556543    -1.5635715      0.023242687    0.49556272     0.99700035   
     67000   0.98043039     0.48972498    -1.5707477      0.0074778022   0.4897223      0.99510919   
     67100   0.99122605     0.49511741    -1.5658612      0.0084859424   0.49511472     0.99163798   
     67200   0.99439449     0.49670005    -1.5616761     -0.017323758    0.49669742     0.98583038   
     67300   0.98693114     0.4929721     -1.5600601      0.027525371    0.49296951     0.98186796   
     67400   0.99967747     0.4993389     -1.5760923      0.040140254    0.49933616     1.0152614    
     67500   1.0095977      0.50429405    -1.5674093      0.025993593    0.50429135     1.0172795    
     67600   0.99803509     0.49851853    -1.5531931      0.015235148    0.49851589     0.98809731   
     67700   1.0171646      0.50807373    -1.5684603      0.018194229    0.50807106     1.0092621    
     67800   1.0007324      0.49986586    -1.5601984      0.0237287      0.49986325     0.98820374   
     67900   0.96521945     0.48212711    -1.5651924      8.4536688e-05  0.48212447     0.98624407   
     68000   1.0414306      0.52019457    -1.5835152      0.035434274    0.52019185     1.0047919    
     68100   0.98972839     0.49436933    -1.584873       0.022249353    0.49436663     0.99461447   
     68200   1.0389271      0.51894406    -1.5873531      0.036215196    0.51894131     1.0275698    
     68300   0.99203989     0.49552393    -1.5801096      0.0094733877   0.49552129     0.99519413   
     68400   0.97052263     0.48477605    -1.5674132      0.018321139    0.48477347     0.98590901   
     68500   1.0046086      0.50180201    -1.6075445     -0.00074045023  0.50179929     1.0226582    
     68600   1.0020439      0.50052093    -1.5837428      0.0035864411   0.50051833     0.98523902   
     68700   0.97617794     0.48760088    -1.5819973      0.027585528    0.48759824     0.98212055   
     68800   1.0405946      0.51977698    -1.5987047     -0.010293267    0.5197742      1.0388261    
     68900   1.0480716      0.52351175    -1.5927154      0.017822227    0.52350903     1.0269432    
     69000   1.0198499      0.50941501    -1.5953883      0.033551137    0.50941232     1.0017774    
     69100   1.0231696      0.51107324    -1.5894372      0.01501443     0.51107055     0.99506715   
     69200   1.0258637      0.51241889    -1.58832        0.020192306    0.51241623     1.0139741    
     69300   0.99924475     0.49912275    -1.590566      -0.0055212943   0.49912002     1.0243218    
     69400   0.98863886     0.49382511    -1.615697       0.011951069    0.49382249     0.98276671   
     69500   0.98742221     0.49321739    -1.5934739      0.014813826    0.49321465     1.0096862    
     69600   0.99677691     0.49789007    -1.6052422      0.025924898    0.49788733     1.0168991    
     69700   1.0592217      0.52908123    -1.6123816      0.027423202    0.5290785      1.0217814    
     69800   1.0444802      0.52171786    -1.6120575      0.00067017912  0.52171513     1.0275828    
     69900   0.98739505     0.49320383    -1.6109164      0.017778088    0.49320117     0.99850891   
     70000   1.0287557      0.51386346    -1.6117235      0.012654322    0.51386085     0.99355873   
     70100   0.99930947     0.49915508    -1.595595       0.030989637    0.49915242     0.99270938   
     70200   1.0361135      0.51753868    -1.6208961      0.022000743    0.51753594     1.0262866    
     70300   0.96247384     0.48075568    -1.6200593      0.0070673876   0.48075307     0.97426332   
     70400   1.0014563      0.50022742    -1.6318098      0.042833337    0.50022479     0.99727061   
     70500   1.0278586      0.51341537    -1.6321857      0.01578668     0.51341265     1.0081934    
     70600   1.0194737      0.50922712    -1.6086773      0.032341322    0.50922443     1.0099063    
     70700   1.0022258      0.5006118     -1.6164134      0.016493728    0.50060922     0.99515813   
     70800   0.99855239     0.49877692    -1.6345988      0.03349919     0.49877427     0.98750282   
     70900   1.0225704      0.51077389    -1.629094       0.029433472    0.51077118     1.013849     
     71000   1.0218796      0.51042884    -1.6238658      0.0027300479   0.51042619     1.0046755    
     71100   0.98452347     0.49176947    -1.620349       0.0094002132   0.49176677     0.99423818   
     71200   1.0274103      0.51319147    -1.631387       0.031094491    0.51318876     1.0317383    
     71300   1.0336563      0.51631132    -1.6459402      0.051640084    0.51630862     1.0182099    
     71400   1.0149418      0.50696342    -1.652521       0.030083491    0.50696071     1.004919     
     71500   1.0053755      0.50218508    -1.6485291      0.031741912    0.5021824      1.0043272    
     71600   1.0010471      0.50002301    -1.6479361      0.022844468    0.50002034     0.98607496   
     71700   1.0155166      0.50725057    -1.6420991      0.023994085    0.50724784     1.0210009    
     71800   1.0199225      0.50945127    -1.6435323      0.016509511    0.5094485      1.0252161    
     71900   1.0138916      0.50643883    -1.6402693     -0.011532765    0.50643615     1.0061151    
     72000   1.0076836      0.50333797    -1.6446098      0.024758163    0.50333533     0.98869676   
     72100   0.99235841     0.49568303    -1.6471617      0.0088138656   0.49568038     0.99534188   
     72200   1.0162786      0.50763116    -1.6333982      0.054703801    0.50762839     1.0183381    
     72300   1.0370586      0.51801077    -1.6156741      0.045521764    0.51800813     1.0049361    
     72400   0.99418077     0.49659329    -1.6311439      0.0015561257   0.49659065     0.99228433   
     72500   1.0563591      0.52765135    -1.6225486      0.012050729    0.52764863     1.0337012    
     72600   1.0419697      0.52046387    -1.6251058      0.012969238    0.52046122     1.0105563    
     72700   0.98796642     0.49348922    -1.616267      -0.012169373    0.49348663     0.98192084   
     72800   0.99399319     0.4964996     -1.629721       0.0041718506   0.49649685     1.0223472    
     72900   1.0177818      0.50838199    -1.6271489      0.010296786    0.50837931     1.0174225    
     73000   0.97722406     0.48812342    -1.6208081      0.045891352    0.48812076     0.98591627   
     73100   1.0104684      0.50472895    -1.6299217      0.021524112    0.50472623     1.0173532    
     73200   1.0040065      0.50150125    -1.6265278      0.018466681    0.50149856     1.0037294    
     73300   0.96773748     0.48338487    -1.627849      -0.018392116    0.48338227     0.98192322   
     73400   0.99648985     0.49774668    -1.6286056     -0.0028409302   0.49774405     0.99327427   
     73500   1.043818       0.52138707    -1.6358407      0.00091681642  0.52138432     1.0209319    
     73600   0.99520005     0.49710243    -1.6305807      0.015897515    0.49709974     1.0088895    
     73700   0.98896587     0.49398845    -1.624645       0.023603532    0.49398576     1.0052531    
     73800   1.0312824      0.51512556    -1.6270644      0.018729743    0.51512286     1.0058502    
     73900   1.0098251      0.50440764    -1.6266928      0.043927568    0.50440492     1.000196     
[...]
    981700   0.98480453     0.49190986    -4.1555814      0.010087135    0.49190715     1.0115361    
    981800   1.0406103      0.51978482    -4.1600608      0.051912015    0.51978207     1.0342554    
    981900   1.0476265      0.52328942    -4.1559418      0.020954533    0.52328656     1.048194     
    982000   1.0429402      0.52094861    -4.1610018      0.0039744798   0.52094582     1.0422447    
    982100   1.0063592      0.50267642    -4.1284905     -0.01562969     0.50267374     1.0075779    
    982200   1.0312712      0.51511997    -4.1633986      0.0082144482   0.5151172      1.041251     
    982300   1.086925       0.54291905    -4.1899149      0.013613804    0.54291633     1.0301811    
    982400   1.0078354      0.50341376    -4.1489695      0.028171407    0.50341105     1.0108942    
    982500   1.0014333      0.50021592    -4.1647447     -0.023914053    0.50021324     1.0059706    
    982600   1.0225985      0.51078797    -4.150369       0.0089022905   0.51078522     1.0270751    
    982700   0.9840131      0.49151454    -4.1483032     -0.014159537    0.49151183     1.0067281    
    982800   1.0257606      0.51236743    -4.1489556      0.036134006    0.5123647      1.0169735    
    982900   1.0215078      0.51024313    -4.1558374      0.016550168    0.51024039     1.0301731    
    983000   0.95857677     0.4788091     -4.1490396      0.023298867    0.47880637     0.99425551   
    983100   1.0131211      0.506054      -4.1503123     -0.005700568    0.50605121     1.029409     
    983200   1.0130287      0.50600782    -4.1649245      0.010274451    0.50600512     1.0067878    
    983300   1.0025565      0.50077698    -4.1572595     -0.0026356212   0.50077422     1.0193922    
    983400   1.001757       0.50037762    -4.1578954      0.0050232757   0.50037494     1.0181202    
    983500   1.0204633      0.50972139    -4.155736      -0.0070129917   0.50971866     1.0171963    
    983600   1.0341339      0.51654986    -4.1590685      0.029449318    0.51654719     1.0275669    
    983700   1.0005715      0.49978549    -4.1548567     -0.038789627    0.49978279     0.99906913   
    983800   1.0368361      0.51789965    -4.1563483      0.054034754    0.51789682     1.0540037    
    983900   1.0201587      0.50956927    -4.161796      -0.024865583    0.5095665      1.0254309    
    984000   1.0849214      0.54191825    -4.1458869      0.038544244    0.54191547     1.0482036    
    984100   1.0636419      0.53128914    -4.1487427      0.030188017    0.53128641     1.0213344    
    984200   1.014336       0.50666081    -4.1681166      0.036258211    0.50665809     1.0232757    
    984300   1.030919       0.51494405    -4.1705848     -0.017541218    0.51494123     1.0363589    
    984400   1.0529935      0.52597025    -4.1573347     -0.01373502     0.52596747     1.0308586    
    984500   1.0196646      0.50932249    -4.1477588      0.013413979    0.50931977     1.0260132    
    984600   1.0433618      0.52115924    -4.1621764     -0.0069503958   0.52115643     1.0263342    
    984700   1.0150524      0.50701866    -4.1536641      0.042038886    0.50701596     1.0142798    
    984800   0.97254184     0.48578465    -4.1628614      0.012752451    0.48578194     1.0068878    
    984900   1.040341       0.51965032    -4.1535057      0.011907288    0.51964746     1.0464606    
    985000   1.0567678      0.52785552    -4.1426716      0.01314953     0.52785277     1.0340529    
    985100   0.99842789     0.49871473    -4.1532157      0.012167022    0.49871205     1.0101956    
    985200   1.0263119      0.51264282    -4.1599279     -0.0072973568   0.51264004     1.0390994    
    985300   1.0020912      0.50054454    -4.1772916      0.020417367    0.5005418      1.0155535    
    985400   1.0542731      0.52660942    -4.1632841     -0.032911736    0.52660672     1.0302211    
    985500   1.0296861      0.51432819    -4.1785273      0.013002954    0.51432545     1.0292644    
    985600   1.0579653      0.52845368    -4.1956776     -0.024481963    0.528451       1.0141063    
    985700   0.99963012     0.49931524    -4.1591354      0.030649594    0.4993126      0.9944067    
    985800   0.98244887     0.49073321    -4.1766407      0.043013142    0.49073046     1.0001488    
    985900   1.0268704      0.51292179    -4.1895782      0.01476251     0.51291912     1.0175487    
    986000   1.0775508      0.53823661    -4.1660518      0.020458994    0.53823382     1.0454154    
    986100   1.0256763      0.51232531    -4.1770465     -0.010123936    0.51232259     1.0260873    
    986200   1.0512775      0.5251131     -4.1572043      0.030390285    0.5251103      1.0376013    
    986300   0.98219109     0.49060445    -4.1685378     -0.030486944    0.49060175     1.0007217    
    986400   1.0234581      0.5112173     -4.1610908     -0.0011132012   0.51121451     1.0328423    
    986500   1.026414       0.51269379    -4.1482812      0.019080043    0.51269103     1.0224747    
    986600   1.0076218      0.5033071     -4.1566922     -0.052832758    0.50330439     1.0091908    
    986700   1.0336215      0.51629393    -4.191529       0.0031675479   0.51629129     1.0019183    
    986800   1.0206117      0.50979554    -4.1442212     -0.042777281    0.50979276     1.0169304    
    986900   1.0432511      0.52110395    -4.1673258      0.019084454    0.52110126     1.0206324    
    987000   1.08778        0.54334611    -4.1737511      0.0047978822   0.54334332     1.0594106    
    987100   1.0017409      0.5003696     -4.1749997      0.029226363    0.50036691     1.0109252    
    987200   1.0539617      0.52645388    -4.192577      -0.013126815    0.52645116     1.0331598    
    987300   1.0705939      0.53476166    -4.1715206      0.022414449    0.53475895     1.0123666    
    987400   1.0318552      0.51541166    -4.1893025     -0.0087078791   0.51540891     1.0354662    
    987500   1.0663306      0.53263214    -4.1346399      0.012794633    0.53262941     1.0301306    
    987600   1.0561937      0.52756874    -4.1471066     -0.0084136819   0.52756597     1.0432823    
    987700   0.96553812     0.48228629    -4.1738348      0.014742702    0.48228364     0.99262319   
    987800   1.0354493      0.51720694    -4.1947205      0.016726436    0.51720409     1.0490664    
    987900   1.0143769      0.50668126    -4.1753473      0.010304978    0.50667856     1.0091455    
    988000   1.0471341      0.5230435     -4.1841717      0.053512693    0.52304078     1.0260174    
    988100   1.0124193      0.50570346    -4.1849376     -0.0022351097   0.5057007      1.0390024    
    988200   1.0424348      0.52069616    -4.1583113      0.080255237    0.52069341     1.036666     
    988300   1.0399444      0.51945222    -4.160465       0.0095695142   0.51944948     1.0353308    
    988400   1.0218519      0.51041504    -4.1843865      0.032480956    0.51041225     1.0423914    
    988500   1.0550052      0.52697508    -4.1832973     -0.023000594    0.5269723      1.0414635    
    988600   1.0079018      0.50344693    -4.1671133     -0.018681858    0.50344413     1.0226998    
    988700   1.0177421      0.5083622     -4.1825649     -0.004263041    0.50835947     1.0194898    
    988800   1.0218428      0.51041047    -4.1694821     -0.013669502    0.51040769     1.0219576    
    988900   1.0154601      0.5072223     -4.1920367     -0.0053991227   0.50721957     1.0194992    
    989000   1.0188991      0.50894008    -4.1731767     -0.0073703643   0.50893742     0.99972401   
    989100   1.0258718      0.51242298    -4.1508844      0.0046464387   0.5124202      1.0355081    
    989200   1.0421461      0.52055198    -4.1890677      0.027321982    0.52054923     1.0169321    
    989300   1.0181062      0.50854405    -4.2042252     -0.0081154612   0.50854128     1.0272952    
    989400   1.0468846      0.52291886    -4.1758923      0.018217507    0.52291609     1.0366155    
    989500   1.0078254      0.50340881    -4.1609159      0.041060465    0.50340601     1.0281435    
    989600   1.0544666      0.52670609    -4.1986089      0.030611903    0.52670327     1.0301916    
    989700   1.0159224      0.50745325    -4.1733588      0.046916756    0.50745049     1.0221498    
    989800   1.0222111      0.51059443    -4.2083693      0.0057272025   0.51059175     1.0117037    
    989900   1.0336907      0.5163285     -4.1455911      0.012200159    0.51632572     1.0351047    
    990000   1.0200729      0.50952642    -4.1879484     -0.01377701     0.50952359     1.034645     
    990100   0.99678987     0.49789654    -4.1844957     -0.0035966022   0.49789376     1.0268783    
    990200   1.0283255      0.51364858    -4.184688      -0.0080432098   0.51364592     1.006315     
    990300   1.0172252      0.508104      -4.163985       0.059889394    0.50810121     1.022443     
    990400   1.0404168      0.51968819    -4.1752421      0.026592739    0.51968544     1.0250483    
    990500   0.99889021     0.49894566    -4.1938578     -0.015938517    0.4989429      1.0129388    
    990600   1.0254306      0.51220258    -4.1922061      0.0091055623   0.51219979     1.034213     
    990700   0.98833653     0.4936741     -4.1766388      0.0163862      0.49367138     1.0135107    
    990800   1.0546281      0.52678672    -4.1892016     -0.010088312    0.52678391     1.0320911    
    990900   1.0560509      0.52749745    -4.1760951      0.062590379    0.52749464     1.0392168    
    991000   1.0281027      0.5135373     -4.1959258     -0.0054164584   0.5135346      1.0055134    
    991100   1.0317803      0.51537428    -4.1970897     -0.032767144    0.51537145     1.0619368    
    991200   1.0391896      0.51907518    -4.1966184      0.013846509    0.51907245     1.0333022    
    991300   1.0590272      0.52898409    -4.2010643      0.02348248     0.52898131     1.0555224    
    991400   1.0137608      0.50637353    -4.1933016     -0.015887902    0.50637083     1.0157411    
    991500   0.97927431     0.48914752    -4.1846955      0.035909148    0.48914477     0.99641496   
    991600   1.0480728      0.52351237    -4.1815577      0.024015728    0.52350955     1.0405403    
    991700   0.99423423     0.49662       -4.1843339     -0.041165908    0.49661729     1.0055899    
    991800   1.0631914      0.53106412    -4.1920038      0.013695751    0.53106149     1.0090243    
    991900   1.0184575      0.50871952    -4.1886296     -0.033507502    0.50871684     1.0107477    
    992000   1.0054921      0.50224332    -4.189362      -0.054004228    0.50224066     1.001352     
    992100   1.0204395      0.50970954    -4.1847766      0.0090126055   0.5097068      1.034948     
    992200   0.96828282     0.48365727    -4.1879669     -0.0070365828   0.48365459     0.98981266   
    992300   0.98620769     0.49261074    -4.1796348     -0.024401093    0.49260802     1.0186967    
    992400   1.0004154      0.4997075     -4.1721423      0.019887289    0.49970472     1.0152547    
    992500   1.0198466      0.50941338    -4.1644041     -0.0072915928   0.5094107      1.0088393    
    992600   1.019854       0.50941705    -4.1611043     -0.031953771    0.5094143      1.0211919    
    992700   1.0415982      0.52027828    -4.1431967      0.012462948    0.5202755      1.0356734    
    992800   0.99349884     0.49625267    -4.1762913      0.0090719949   0.49624989     1.0182097    
    992900   1.0509315      0.52494027    -4.1727064     -0.017431485    0.52493749     1.035795     
    993000   1.0123746      0.50568114    -4.175464      -0.016411164    0.50567847     1.0158806    
    993100   1.0656664      0.53230035    -4.1809379     -0.011350678    0.53229757     1.0418625    
    993200   1.0229738      0.51097543    -4.1894027      0.039228785    0.51097269     1.004553     
    993300   1.0058754      0.50243477    -4.1848686      0.024255003    0.50243197     1.0274426    
    993400   1.0551585      0.52705165    -4.1851434      0.014168078    0.5270488      1.0505706    
    993500   1.0410636      0.52001127    -4.1677245     -0.017763038    0.52000851     1.0288085    
    993600   1.0343683      0.51666696    -4.1684856      0.032754104    0.51666417     1.0323823    
    993700   1.0442455      0.52160065    -4.1873018      0.011894075    0.52159784     1.034365     
    993800   0.97911297     0.48906693    -4.1535809      0.011551441    0.48906425     0.99000452   
    993900   0.99998256     0.49949129    -4.1844734      0.014780886    0.49948853     1.0135901    
    994000   1.0166343      0.50780884    -4.1625903     -0.0080977632   0.50780606     1.0254324    
    994100   1.0051491      0.502072      -4.1747334     -0.0095544996   0.50206931     1.0160251    
    994200   0.98373593     0.4913761     -4.1759235      0.0033107337   0.49137332     1.0132405    
    994300   1.0170999      0.50804141    -4.1689724      0.019106817    0.50803873     1.0047475    
    994400   1.0064449      0.50271925    -4.1789087      0.018537142    0.50271654     1.0141264    
    994500   1.0361414      0.51755263    -4.1744205      0.02309281     0.51754995     1.018925     
    994600   1.0678543      0.53339324    -4.171069       0.03872811     0.53339055     1.0380776    
    994700   0.97720408     0.48811344    -4.1572377     -0.008130688    0.48811072     1.0058199    
    994800   1.031908       0.51543804    -4.1662237      0.014380345    0.51543532     1.026997     
    994900   1.0157311      0.5073577     -4.1842763     -0.0043730856   0.50735489     1.0238979    
    995000   1.0031648      0.5010808     -4.1710779     -0.010953082    0.50107807     1.0105516    
    995100   1.0502095      0.52457963    -4.1739656      0.0071617802   0.52457697     1.0109714    
    995200   1.066255       0.53259435    -4.1653091      0.010206989    0.53259155     1.0517673    
    995300   1.0317964      0.51538229    -4.2000023      0.002883885    0.5153796      1.0209464    
    995400   1.0143002      0.50664297    -4.1967008      0.0044062601   0.50664031     1.0095305    
    995500   1.0685826      0.533757      -4.1841835      0.0046053306   0.53375424     1.0399132    
    995600   1.0229116      0.51094434    -4.1812582      0.019617499    0.51094154     1.0365289    
    995700   1.0397335      0.51934691    -4.1773062      0.028036784    0.51934419     1.0196044    
    995800   0.98416284     0.49158934    -4.1842045      0.014201971    0.49158658     1.0117379    
    995900   1.0126073      0.50579734    -4.1775437     -0.007765682    0.50579467     1.0167305    
    996000   1.0108537      0.50492144    -4.2013728      0.015890517    0.50491874     1.0051677    
    996100   1.0162053      0.50759456    -4.1807368      0.017933199    0.50759192     1.00487      
    996200   1.0462234      0.5225886     -4.1765534      0.024711467    0.52258602     0.99834106   
    996300   1.0158126      0.50739841    -4.1898219      0.037150937    0.50739576     1.0097581    
    996400   1.0153819      0.50718326    -4.1930073     -0.0018426225   0.50718048     1.0235617    
    996500   1.0275065      0.51323952    -4.1922932     -0.020032706    0.51323681     1.0215016    
    996600   1.0536734      0.52630987    -4.2084613      0.049121316    0.52630711     1.0225616    
    996700   1.0892225      0.54406664    -4.1762066     -0.0017981368   0.54406386     1.0443119    
    996800   1.0346609      0.51681313    -4.169448       0.0083100711   0.51681039     1.0252628    
    996900   0.97922748     0.48912413    -4.1897191      0.0068213908   0.48912139     1.0117534    
    997000   1.0749116      0.53691832    -4.1929786      0.012912776    0.53691555     1.0519255    
    997100   1.0212866      0.51013266    -4.1758741     -0.00070680414  0.51012993     1.0186645    
    997200   1.0350552      0.51701006    -4.170687      -0.0022850824   0.51700731     1.0198266    
    997300   0.99303367     0.49602032    -4.1770649     -0.001832329    0.49601765     0.99739439   
    997400   1.0321358      0.51555182    -4.1745001      0.045370758    0.51554902     1.0348695    
    997500   1.0600664      0.52950317    -4.1822806     -0.0033550262   0.52950034     1.0520896    
    997600   1.0798168      0.53936851    -4.1717129      0.0093889885   0.53936572     1.0452278    
    997700   1.0277432      0.51335772    -4.1630989      0.02658244     0.51335497     1.0256243    
    997800   1.0280915      0.51353172    -4.1773788      0.003689652    0.51352891     1.0340378    
    997900   1.0217919      0.51038507    -4.1677385      0.007458588    0.51038229     1.0489331    
    998000   1.0455158      0.52223513    -4.2009729     -0.0041950701   0.52223225     1.0507217    
    998100   0.99162142     0.4953149     -4.2026245      0.032688742    0.49531217     0.99811965   
    998200   1.0296921      0.5143312     -4.2099557      0.011403298    0.51432851     1.0221439    
    998300   1.0426372      0.52079729    -4.1953454      0.011206589    0.52079459     1.0342237    
    998400   0.98674875     0.492881      -4.2052282     -0.0073381372   0.49287826     0.99975807   
    998500   1.0448172      0.52188619    -4.2247732      0.017273253    0.52188339     1.0319374    
    998600   1.0205316      0.50975556    -4.203691      -0.00052384048  0.50975286     1.012119     
    998700   1.0054606      0.50222755    -4.2244183     -0.021032616    0.50222484     1.0154824    
    998800   1.053259       0.52610285    -4.2000383     -0.03479373     0.52610005     1.037143     
    998900   1.0301523      0.51456105    -4.2014635     -0.013637751    0.51455826     1.0299311    
    999000   1.0556056      0.52727499    -4.1966663      0.0023718524   0.52727215     1.0553513    
    999100   1.0134428      0.50621469    -4.2032809      0.037717466    0.50621193     1.0277239    
    999200   1.0109972      0.50499312    -4.2119586      0.010902624    0.5049904      1.0055249    
    999300   0.99736712     0.49818488    -4.2150355      0.0063770611   0.49818219     0.99833857   
    999400   1.0279978      0.5134849     -4.2018646     -0.021551104    0.51348222     1.0127185    
    999500   1.0416224      0.52029036    -4.2154667     -0.028123872    0.52028746     1.0658925    
    999600   0.99220203     0.49560492    -4.2139412     -0.0039503972   0.49560226     0.9920626    
    999700   1.0467284      0.52284081    -4.1955229      0.014346577    0.52283807     1.0259423    
    999800   0.99824279     0.49862227    -4.2523502      0.01157079     0.49861947     1.0236988    
    999900   1.0244813      0.51172843    -4.2244901     -0.0050449205   0.51172571     1.0042974    
   1000000   0.98584058     0.49242737    -4.2313095      0.015646248    0.49242462     1.0130185    
Loop time of 1561.64 on 1 procs for 1000000 steps with 3000 atoms

Performance: 276631.828 tau/day, 640.351 timesteps/s, 1.921 Matom-step/s
99.6% CPU use with 1 MPI tasks x 1 OpenMP threads

MPI task timing breakdown:
Section |  min time  |  avg time  |  max time  |%varavg| %total
---------------------------------------------------------------
Pair    | 46.104     | 46.104     | 46.104     |   0.0 |  2.95
Bond    | 0.039124   | 0.039124   | 0.039124   |   0.0 |  0.00
Neigh   | 967.58     | 967.58     | 967.58     |   0.0 | 61.96
Comm    | 67.411     | 67.411     | 67.411     |   0.0 |  4.32
Output  | 0.68501    | 0.68501    | 0.68501    |   0.0 |  0.04
Modify  | 451.18     | 451.18     | 451.18     |   0.0 | 28.89
Other   |            | 28.65      |            |       |  1.83

Nlocal:           3000 ave        3000 max        3000 min
Histogram: 1 0 0 0 0 0 0 0 0 0
Nghost:            998 ave         998 max         998 min
Histogram: 1 0 0 0 0 0 0 0 0 0
Neighs:              0 ave           0 max           0 min
Histogram: 1 0 0 0 0 0 0 0 0 0

Total # of neighbors = 0
Ave neighs/atom = 0
Ave special neighs/atom = 0
Neighbor list builds = 1000000
Dangerous builds not checked

Total wall time: 0:26:02
