LAMMPS (10 Sep 2025 - Development - patch_10Sep2025-660-g792d014343)
OMP_NUM_THREADS environment is not set. Defaulting to 1 thread.
  using 1 OpenMP thread(s) per MPI task
# Defining the essential variables

units lj
dimension 3
atom_style atomic
boundary p p p




# Creating  a large box

region my_box block 0 30 0 30 0 30
create_box 1 my_box
Created orthogonal box = (0 0 0) to (30 30 30)
  1 by 1 by 1 MPI processor grid





# Filling up the box with the particles

create_atoms 1 random 5000 87910 my_box
Created 5000 atoms
  using lattice units in orthogonal box = (0 0 0) to (30 30 30)
  create_atoms CPU = 0.001 seconds




# Defining the particle's properties and switching off the interaction

mass 1 1.0

pair_style lj/cut 2.5
pair_style none




# Creating initial velocity distribution for a given temperature

velocity all create 2.0 12345 mom yes rot no  # Assign initial velocities




# Setting up Brownian dynamics through the Langevin thermostat at a particular temperature

fix my_thermo_stat all langevin 2  2  0.1 89080




# Applying an integrator to update the position and the velocity

fix integrator all nve




# Setting up time achieved by each simulation step

timestep 0.005




# Specifying the parameters to print on the terminal

thermo 100
thermo_style custom step temp ke pe press






# Apply another compute to calculate the mean squared displacement

compute msd_all all msd
fix msd_output all ave/time 100 1 100 c_msd_all file msd.dat mode vector





# Running the simulation

run 40000
WARNING: No pairwise cutoff or binsize set. Atom sorting therefore disabled. (src/atom.cpp:2486)
WARNING: Communication cutoff is 0.0. No ghost atoms will be generated. Energies and forces may be wrong and atoms may get lost. (src/comm_brick.cpp:188)
Per MPI rank memory allocation (min/avg/max) = 2.672 | 2.672 | 2.672 Mbytes
   Step          Temp          KinEng         PotEng         Press     
         0   2              2.9994         0              0.3702963    
       100   2.0370239      3.0549247      0              0.3771512    
       200   1.9825056      2.9731637      0              0.36705725   
       300   2.0038362      3.0051532      0              0.37100656   
       400   2.0010733      3.0010096      0              0.37049502   
       500   2.0232664      3.0342925      0              0.37460402   
       600   1.9875019      2.9806567      0              0.3679823    
       700   1.9909461      2.9858219      0              0.36861999   
       800   1.9843946      2.9759966      0              0.36740699   
       900   2.0032521      3.0042772      0              0.37089843   
      1000   1.9903508      2.9849291      0              0.36850977   
      1100   2.0127677      3.0185477      0              0.37266022   
      1200   2.0234118      3.0345107      0              0.37463095   
      1300   1.9796322      2.9688544      0              0.36652523   
      1400   1.9733261      2.9593971      0              0.36535767   
      1500   1.9716835      2.9569338      0              0.36505355   
      1600   1.9914581      2.9865898      0              0.36871479   
      1700   1.9870695      2.9800081      0              0.36790223   
      1800   2.0114646      3.0165935      0              0.37241895   
      1900   2.0038943      3.0052403      0              0.37101732   
      2000   1.9953462      2.9924207      0              0.36943465   
      2100   2.0053446      3.0074154      0              0.37128585   
      2200   1.969002       2.9529123      0              0.36455708   
      2300   2.0296472      3.0438619      0              0.37578543   
      2400   2.022809       3.0336066      0              0.37451934   
      2500   2.0052715      3.0073057      0              0.37127231   
      2600   1.9835213      2.9746869      0              0.36724529   
      2700   2.0137377      3.0200024      0              0.37283981   
      2800   1.9939374      2.9903079      0              0.36917381   
      2900   1.9811856      2.9711841      0              0.36681285   
      3000   1.9849545      2.9768363      0              0.36751066   
      3100   2.006036       3.0084522      0              0.37141385   
      3200   2.0238374      3.035149       0              0.37470975   
      3300   2.0036163      3.0048233      0              0.37096584   
      3400   1.9979375      2.9963069      0              0.36991444   
      3500   1.9991377      2.9981069      0              0.37013665   
      3600   2.0247213      3.0364745      0              0.3748734    
      3700   2.0076294      3.0108418      0              0.37170887   
      3800   2.0274866      3.0406216      0              0.37538538   
      3900   1.996203       2.9937057      0              0.36959329   
      4000   2.0074373      3.0105538      0              0.3716733    
      4100   1.9609312      2.9408085      0              0.36306278   
      4200   2.0095609      3.0137385      0              0.37206648   
      4300   1.9891173      2.9830793      0              0.36828139   
      4400   1.9853426      2.9774183      0              0.36758251   
      4500   1.9883145      2.9818753      0              0.36813275   
      4600   1.9846881      2.9764367      0              0.36746132   
      4700   1.9914998      2.9866522      0              0.3687225    
      4800   2.014689       3.021429       0              0.37301593   
      4900   1.9998733      2.99921        0              0.37027284   
      5000   2.0350269      3.0519298      0              0.37678145   
      5100   2.0016333      3.0018495      0              0.3705987    
      5200   1.9837933      2.9750949      0              0.36729566   
      5300   1.9656839      2.9479362      0              0.36394274   
      5400   2.0028701      3.0037043      0              0.3708277    
      5500   2.0185488      3.0272176      0              0.37373057   
      5600   1.9639917      2.9453983      0              0.36362943   
      5700   2.0218078      3.0321051      0              0.37433397   
      5800   1.9793637      2.9684517      0              0.36647551   
      5900   2.0295652      3.0437389      0              0.37577024   
      6000   1.9857525      2.9780331      0              0.3676584    
      6100   2.0417421      3.0620006      0              0.37802476   
      6200   1.9535124      2.9296826      0              0.36168921   
      6300   1.9749449      2.9618249      0              0.36565739   
      6400   1.9972267      2.9952409      0              0.36978282   
      6500   2.026575       3.0392545      0              0.3752166    
      6600   1.9779368      2.9663118      0              0.36621133   
      6700   1.9545463      2.931233       0              0.36188062   
      6800   1.9696026      2.953813       0              0.36466827   
      6900   2.0032495      3.0042733      0              0.37089794   
      7000   2.0405212      3.0601696      0              0.37779872   
      7100   2.0030505      3.0039749      0              0.3708611    
      7200   2.0052759      3.0073123      0              0.37127313   
      7300   1.9524882      2.9281466      0              0.36149958   
      7400   1.9329883      2.8989026      0              0.35788921   
      7500   2.0070924      3.0100365      0              0.37160944   
      7600   2.0045755      3.0062619      0              0.37114344   
      7700   1.9944588      2.9910898      0              0.36927035   
      7800   1.9816482      2.9718778      0              0.36689849   
      7900   2.0254844      3.037619       0              0.37501469   
      8000   2.0179289      3.026288       0              0.3736158    
      8100   2.0570034      3.0848879      0              0.38085036   
      8200   2.0416749      3.0618998      0              0.37801232   
      8300   2.0136112      3.0198126      0              0.37281638   
      8400   2.0407869      3.0605681      0              0.37784792   
      8500   2.0102034      3.014702       0              0.37218544   
      8600   2.0490677      3.0729868      0              0.37938109   
      8700   2.0391221      3.0580714      0              0.37753968   
      8800   2.0017938      3.0020901      0              0.37062841   
      8900   1.9784611      2.9670982      0              0.36630841   
      9000   2.0259023      3.0382457      0              0.37509206   
      9100   1.9864041      2.9790103      0              0.36777904   
      9200   2.0136825      3.0199197      0              0.37282959   
      9300   2.0147718      3.0215533      0              0.37303128   
      9400   2.0184091      3.0270081      0              0.37370471   
      9500   1.9544474      2.9310848      0              0.36186232   
      9600   2.0004998      3.0001495      0              0.37038883   
      9700   1.998903       2.9977548      0              0.37009318   
      9800   2.0173516      3.0254222      0              0.37350892   
      9900   2.0019645      3.0023461      0              0.37066001   
     10000   2.0299699      3.0443458      0              0.37584516   
     10100   2.0099331      3.0142966      0              0.37213538   
     10200   2.0026105      3.003315       0              0.37077963   
     10300   1.9698622      2.9542024      0              0.36471634   
     10400   1.9974082      2.9955131      0              0.36981643   
     10500   1.9745747      2.9612696      0              0.36558884   
     10600   2.0238521      3.035171       0              0.37471247   
     10700   1.9603573      2.9399478      0              0.36295652   
     10800   2.0250255      3.0369308      0              0.37492973   
     10900   2.0023426      3.0029132      0              0.37073003   
     11000   2.0145481      3.0212177      0              0.37298984   
     11100   1.9833899      2.9744898      0              0.36722097   
     11200   2.0182843      3.026821       0              0.37368161   
     11300   1.9768016      2.9646093      0              0.36600115   
     11400   2.0242898      3.0358274      0              0.37479351   
     11500   2.0052027      3.0072025      0              0.37125956   
     11600   1.9706382      2.955366       0              0.36486001   
     11700   1.9792131      2.9682258      0              0.36644763   
     11800   2.0402502      3.0597632      0              0.37774855   
     11900   2.0100483      3.0144695      0              0.37215673   
     12000   1.9915646      2.9867494      0              0.36873449   
     12100   1.9827876      2.9735866      0              0.36710946   
     12200   2.0130989      3.0190443      0              0.37272152   
     12300   1.9971368      2.995106       0              0.36976617   
     12400   2.0397906      3.059074       0              0.37766346   
     12500   1.9909008      2.9857539      0              0.3686116    
     12600   2.0063583      3.0089356      0              0.37147353   
     12700   1.9947536      2.991532       0              0.36932494   
     12800   2.0165973      3.024291       0              0.37336925   
     12900   2.0112201      3.0162269      0              0.37237369   
     13000   2.0135692      3.0197497      0              0.3728086    
     13100   1.9891067      2.9830633      0              0.36827941   
     13200   2.0055613      3.0077403      0              0.37132596   
     13300   2.0039006      3.0052497      0              0.37101848   
     13400   1.9921387      2.9876105      0              0.3688408    
     13500   2.043946       3.0653058      0              0.37843282   
     13600   1.9856726      2.9779131      0              0.3676436    
     13700   1.97863        2.9673515      0              0.36633969   
     13800   2.0589573      3.0878182      0              0.38121213   
     13900   2.0092476      3.0132686      0              0.37200847   
     14000   1.9890986      2.9830511      0              0.36827792   
     14100   2.0130994      3.0190452      0              0.37272162   
     14200   2.006651       3.0093745      0              0.37152771   
     14300   1.9681581      2.9516468      0              0.36440084   
     14400   2.0510216      3.0759171      0              0.37974285   
     14500   1.9797563      2.9690405      0              0.36654821   
     14600   2.0062835      3.0088233      0              0.37145967   
     14700   2.0188462      3.0276636      0              0.37378563   
     14800   2.0170863      3.0250244      0              0.3734598    
     14900   1.9714165      2.9565333      0              0.36500411   
     15000   1.9869469      2.9798243      0              0.36787954   
     15100   2.028351       3.041918       0              0.37554543   
     15200   2.018231       3.026741       0              0.37367173   
     15300   1.9756856      2.9629357      0              0.36579453   
     15400   2.0040026      3.0054027      0              0.37103737   
     15500   2.0262647      3.0387891      0              0.37515915   
     15600   1.9939639      2.9903476      0              0.36917872   
     15700   1.987502       2.9806567      0              0.36798231   
     15800   1.9978737      2.9962112      0              0.36990262   
     15900   1.9942261      2.9907409      0              0.36922727   
     16000   1.9884636      2.9820989      0              0.36816036   
     16100   1.988909       2.9827668      0              0.36824281   
     16200   2.01954        3.0287042      0              0.37391409   
     16300   1.9834932      2.9746447      0              0.36724009   
     16400   2.0072813      3.0103197      0              0.37164441   
     16500   1.9763266      2.963897       0              0.36591321   
     16600   1.9670263      2.9499494      0              0.36419128   
     16700   2.0224807      3.0331143      0              0.37445855   
     16800   1.9890647      2.9830003      0              0.36827164   
     16900   2.0002034      2.999705       0              0.37033395   
     17000   1.9951735      2.9921617      0              0.36940268   
     17100   2.0129375      3.0188024      0              0.37269165   
     17200   1.9809482      2.9708281      0              0.3667689    
     17300   1.9866342      2.9793553      0              0.36782164   
     17400   1.9939494      2.9903259      0              0.36917604   
     17500   2.0192937      3.0283348      0              0.37386849   
     17600   2.0114756      3.01661        0              0.37242098   
     17700   2.0270575      3.0399781      0              0.37530594   
     17800   2.0034448      3.0045661      0              0.37093409   
     17900   2.0003046      2.9998568      0              0.37035269   
     18000   1.992077       2.9875179      0              0.36882937   
     18100   1.9707055      2.955467       0              0.36487247   
     18200   2.0060291      3.0084419      0              0.37141258   
     18300   2.0338694      3.0501939      0              0.37656715   
     18400   2.0023561      3.0029335      0              0.37073253   
     18500   1.9628044      2.9436177      0              0.36340959   
     18600   1.9941591      2.9906404      0              0.36921487   
     18700   1.9725696      2.9582626      0              0.3652176    
     18800   2.0043347      3.0059008      0              0.37109886   
     18900   1.9895484      2.9837258      0              0.36836121   
     19000   2.0126122      3.0183146      0              0.37263143   
     19100   1.9643937      2.9460012      0              0.36370385   
     19200   2.0390488      3.0579614      0              0.3775261    
     19300   1.991549       2.986726       0              0.36873161   
     19400   2.0330288      3.0489334      0              0.37641153   
     19500   1.9981528      2.9966298      0              0.3699543    
     19600   1.9960255      2.9934394      0              0.36956042   
     19700   1.9929878      2.9888838      0              0.368998     
     19800   2.0099135      3.0142673      0              0.37213176   
     19900   1.9769577      2.9648434      0              0.36603005   
     20000   1.9885442      2.9822197      0              0.36817527   
     20100   1.984623       2.9763391      0              0.36744928   
     20200   2.0049669      3.0068489      0              0.37121591   
     20300   2.0240556      3.0354763      0              0.37475016   
     20400   1.9951142      2.9920728      0              0.36939171   
     20500   2.0167633      3.0245399      0              0.37339999   
     20600   1.9973893      2.9954848      0              0.36981294   
     20700   1.9839951      2.9753974      0              0.36733301   
     20800   1.9753799      2.9624772      0              0.36573793   
     20900   2.0049403      3.006809       0              0.37121099   
     21000   1.97869        2.9674414      0              0.3663508    
     21100   2.0063907      3.0089841      0              0.37147952   
     21200   1.9831616      2.9741474      0              0.36717869   
     21300   1.9874961      2.9806479      0              0.36798122   
     21400   2.0014459      3.0015685      0              0.37056401   
     21500   1.9650511      2.9469871      0              0.36382557   
     21600   1.9838702      2.9752101      0              0.36730989   
     21700   2.0208501      3.0306689      0              0.37415665   
     21800   2.0052218      3.0072311      0              0.3712631    
     21900   2.0341477      3.0506114      0              0.37661869   
     22000   2.0074902      3.0106331      0              0.3716831    
     22100   2.0293979      3.043488       0              0.37573926   
     22200   2.0153678      3.0224471      0              0.37314161   
     22300   1.9691697      2.9531638      0              0.36458813   
     22400   2.0277094      3.0409559      0              0.37542665   
     22500   1.9791844      2.9681828      0              0.36644232   
     22600   2.036961       3.0548304      0              0.37713956   
     22700   1.996195       2.9936937      0              0.36959181   
     22800   1.9969688      2.9948541      0              0.36973507   
     22900   1.9945084      2.9911643      0              0.36927954   
     23000   1.9823611      2.9729469      0              0.36703049   
     23100   2.0420143      3.0624088      0              0.37807516   
     23200   1.9990471      2.997971       0              0.37011988   
     23300   2.0025758      3.003263       0              0.37077321   
     23400   1.9918503      2.9871779      0              0.36878739   
     23500   1.9942268      2.990742       0              0.3692274    
     23600   2.0024639      3.0030951      0              0.37075248   
     23700   1.9636531      2.9448906      0              0.36356674   
     23800   2.0195866      3.0287741      0              0.37392273   
     23900   1.9826764      2.9734198      0              0.36708886   
     24000   1.985748       2.9780263      0              0.36765756   
     24100   2.0284996      3.0421409      0              0.37557295   
     24200   2.0158628      3.0231895      0              0.37323327   
     24300   2.0330288      3.0489332      0              0.37641151   
     24400   1.9627888      2.9435943      0              0.3634067    
     24500   1.9997613      2.999042       0              0.3702521    
     24600   1.9717306      2.9570044      0              0.36506227   
     24700   1.9957201      2.9929815      0              0.36950388   
     24800   2.007207       3.0102083      0              0.37163066   
     24900   1.9942697      2.9908062      0              0.36923534   
     25000   2.0220847      3.0325205      0              0.37438524   
     25100   2.0099246      3.0142839      0              0.37213381   
     25200   1.9712165      2.9562333      0              0.36496708   
     25300   1.9827308      2.9735014      0              0.36709894   
     25400   2.0001853      2.999678       0              0.37033061   
     25500   2.0083476      3.0119189      0              0.37184184   
     25600   1.9841005      2.9755556      0              0.36735254   
     25700   2.013291       3.0193325      0              0.37275709   
     25800   2.0213602      3.0314339      0              0.37425109   
     25900   2.0329315      3.0487874      0              0.37639351   
     26000   2.0279846      3.0413685      0              0.37547759   
     26100   1.987309       2.9803673      0              0.36794658   
     26200   1.9998112      2.9991169      0              0.37026134   
     26300   2.0251616      3.0371348      0              0.37495492   
     26400   2.0247075      3.0364538      0              0.37487084   
     26500   1.9792908      2.9683424      0              0.36646202   
     26600   1.99646        2.9940911      0              0.36964087   
     26700   2.0146833      3.0214205      0              0.37301488   
     26800   1.9455521      2.9177445      0              0.36021537   
     26900   1.9914404      2.9865631      0              0.3687115    
     27000   1.9801265      2.9695957      0              0.36661675   
     27100   2.0186676      3.0273958      0              0.37375257   
     27200   1.9782913      2.9668434      0              0.36627696   
     27300   2.0784534      3.1170566      0              0.3848218    
     27400   1.9536762      2.9299282      0              0.36171953   
     27500   1.9997128      2.9989692      0              0.37024312   
     27600   2.0067273      3.009489       0              0.37154185   
     27700   1.9948364      2.9916561      0              0.36934026   
     27800   1.9784498      2.9670812      0              0.36630632   
     27900   2.0087367      3.0125025      0              0.37191389   
     28000   1.9982894      2.9968346      0              0.36997958   
     28100   2.0116667      3.0168966      0              0.37245637   
     28200   2.0058819      3.0082211      0              0.37138532   
     28300   2.0015871      3.0017801      0              0.37059014   
     28400   2.0118101      3.0171115      0              0.37248291   
     28500   2.0074324      3.0105464      0              0.3716724    
     28600   2.0246058      3.0363013      0              0.37485201   
     28700   2.0113785      3.0164643      0              0.37240301   
     28800   1.9854638      2.9776         0              0.36760494   
     28900   2.0070529      3.0099772      0              0.37160213   
     29000   1.996156       2.9936352      0              0.36958459   
     29100   2.0242078      3.0357044      0              0.37477832   
     29200   2.0213135      3.0313638      0              0.37424245   
     29300   1.9677274      2.9510008      0              0.36432109   
     29400   1.9780201      2.9664367      0              0.36622676   
     29500   2.0432006      3.0641879      0              0.37829481   
     29600   2.0164605      3.0240859      0              0.37334393   
     29700   1.9913561      2.9864367      0              0.36869589   
     29800   1.9495233      2.9237001      0              0.36095063   
     29900   2.0276899      3.0409265      0              0.37542302   
     30000   1.9730183      2.9589355      0              0.36530068   
     30100   1.9670192      2.9499387      0              0.36418996   
     30200   1.9687713      2.9525664      0              0.36451437   
     30300   2.0181704      3.0266501      0              0.37366051   
     30400   2.0397521      3.0590162      0              0.37765632   
     30500   2.0050719      3.0070063      0              0.37123534   
     30600   1.9802825      2.9698296      0              0.36664563   
     30700   1.9594692      2.938616       0              0.3627921    
     30800   1.9947735      2.9915618      0              0.36932862   
     30900   1.9847181      2.9764818      0              0.36746688   
     31000   1.9952366      2.9922564      0              0.36941437   
     31100   1.9966844      2.9944276      0              0.36968242   
     31200   1.9799876      2.9693874      0              0.36659104   
     31300   1.9738012      2.9601097      0              0.36544564   
     31400   1.9854882      2.9776366      0              0.36760946   
     31500   1.9969554      2.994834       0              0.36973259   
     31600   2.0391809      3.0581596      0              0.37755057   
     31700   2.0223319      3.0328912      0              0.37443101   
     31800   2.0265168      3.0391672      0              0.37520583   
     31900   2.0214736      3.0316039      0              0.37427209   
     32000   2.0417658      3.0620362      0              0.37802916   
     32100   2.0156096      3.0228097      0              0.37318638   
     32200   2.0316863      3.04692        0              0.37616296   
     32300   2.0072371      3.0102534      0              0.37163623   
     32400   2.0089637      3.0128428      0              0.3719559    
     32500   2.0281003      3.041542       0              0.37549901   
     32600   2.0192852      3.028322       0              0.37386691   
     32700   1.9784491      2.9670802      0              0.36630619   
     32800   2.0120724      3.017505       0              0.37253148   
     32900   2.0094055      3.0135054      0              0.3720377    
     33000   1.9760009      2.9634086      0              0.36585291   
     33100   2.0054825      3.007622       0              0.37131136   
     33200   2.0014979      3.0016464      0              0.37057362   
     33300   1.9938928      2.9902411      0              0.36916556   
     33400   1.9900279      2.9844448      0              0.36844997   
     33500   2.0096843      3.0139236      0              0.37208933   
     33600   1.9865752      2.9792668      0              0.36781072   
     33700   1.9654185      2.9475381      0              0.36389359   
     33800   2.016344       3.0239112      0              0.37332237   
     33900   2.0342871      3.0508204      0              0.37664449   
     34000   1.9914688      2.9866058      0              0.36871676   
     34100   2.0212829      3.031318       0              0.37423679   
     34200   1.9953414      2.9924134      0              0.36943376   
     34300   1.9643574      2.9459468      0              0.36369714   
     34400   2.000875       3.0007122      0              0.37045829   
     34500   1.9765233      2.9641919      0              0.36594962   
     34600   2.0053614      3.0074405      0              0.37128895   
     34700   1.9982977      2.9968471      0              0.36998112   
     34800   1.9849523      2.9768329      0              0.36751023   
     34900   2.0094125      3.0135159      0              0.372039     
     35000   2.0092544      3.0132788      0              0.37200973   
     35100   1.965293       2.9473499      0              0.36387035   
     35200   2.0135713      3.0197528      0              0.37280899   
     35300   2.0263627      3.0389361      0              0.3751773    
     35400   1.9565658      2.9342617      0              0.36225453   
     35500   2.0104208      3.015028       0              0.37222568   
     35600   2.0063493      3.008922       0              0.37147185   
     35700   1.9977484      2.9960232      0              0.36987941   
     35800   1.9971315      2.9950981      0              0.3697652    
     35900   1.9867153      2.9794769      0              0.36783665   
     36000   2.0213083      3.0313561      0              0.37424149   
     36100   1.9755391      2.962716       0              0.36576741   
     36200   2.0195225      3.0286779      0              0.37391085   
     36300   2.0420355      3.0624406      0              0.37807909   
     36400   2.0254498      3.037567       0              0.37500828   
     36500   1.9866809      2.9794254      0              0.36783029   
     36600   2.0206593      3.0303828      0              0.37412133   
     36700   2.0034264      3.0045385      0              0.37093068   
     36800   2.0336289      3.0498333      0              0.37652263   
     36900   2.0448812      3.0667083      0              0.37860596   
     37000   1.9715171      2.9566842      0              0.36502274   
     37100   2.0247929      3.0365819      0              0.37488665   
     37200   1.9753464      2.9624271      0              0.36573174   
     37300   1.9859872      2.9783851      0              0.36770186   
     37400   2.0197318      3.0289918      0              0.3739496    
     37500   1.9961742      2.9936625      0              0.36958796   
     37600   2.0099309      3.0142933      0              0.37213498   
     37700   2.0197039      3.0289499      0              0.37394443   
     37800   2.0207497      3.0305183      0              0.37413807   
     37900   1.9910092      2.9859165      0              0.36863167   
     38000   2.0164329      3.0240444      0              0.37333881   
     38100   2.0541963      3.0806782      0              0.38033064   
     38200   1.9958579      2.9931881      0              0.36952939   
     38300   2.0373979      3.0554857      0              0.37722046   
     38400   1.9835966      2.9747999      0              0.36725924   
     38500   1.9911162      2.9860769      0              0.36865148   
     38600   1.9884484      2.9820761      0              0.36815754   
     38700   2.006044       3.0084642      0              0.37141533   
     38800   1.9638046      2.9451177      0              0.36359478   
     38900   2.0164798      3.0241147      0              0.3733475    
     39000   1.9889739      2.9828641      0              0.36825483   
     39100   1.9803429      2.9699203      0              0.36665683   
     39200   1.9580978      2.9365592      0              0.36253817   
     39300   1.9521671      2.927665       0              0.36144013   
     39400   2.0346456      3.051358       0              0.37671087   
     39500   1.99137        2.9864576      0              0.36869847   
     39600   1.9849297      2.9767991      0              0.36750606   
     39700   1.9912015      2.9862049      0              0.36866727   
     39800   1.9820714      2.9725124      0              0.36697684   
     39900   1.9890226      2.9829371      0              0.36826384   
     40000   1.9971438      2.9951165      0              0.36976747   
Loop time of 7.25753 on 1 procs for 40000 steps with 5000 atoms

Performance: 2380976.402 tau/day, 5511.519 timesteps/s, 27.558 Matom-step/s
99.9% CPU use with 1 MPI tasks x 1 OpenMP threads

MPI task timing breakdown:
Section |  min time  |  avg time  |  max time  |%varavg| %total
---------------------------------------------------------------
Pair    | 0          | 0          | 0          |   0.0 |  0.00
Neigh   | 0.030789   | 0.030789   | 0.030789   |   0.0 |  0.42
Comm    | 0.18505    | 0.18505    | 0.18505    |   0.0 |  2.55
Output  | 0.0067649  | 0.0067649  | 0.0067649  |   0.0 |  0.09
Modify  | 6.6414     | 6.6414     | 6.6414     |   0.0 | 91.51
Other   |            | 0.3935     |            |       |  5.42

Nlocal:           5000 ave        5000 max        5000 min
Histogram: 1 0 0 0 0 0 0 0 0 0
Nghost:              0 ave           0 max           0 min
Histogram: 1 0 0 0 0 0 0 0 0 0
Neighs:              0 ave           0 max           0 min
Histogram: 1 0 0 0 0 0 0 0 0 0

Total # of neighbors = 0
Ave neighs/atom = 0
Neighbor list builds = 7443
Dangerous builds = 0
Total wall time: 0:00:07
