LAMMPS (10 Sep 2025 - Development - patch_10Sep2025-660-g792d014343)
OMP_NUM_THREADS environment is not set. Defaulting to 1 thread.
  using 1 OpenMP thread(s) per MPI task
# Defining the essential variables

units lj
dimension 3
atom_style atomic
boundary p p p




# Creating  a large box

region my_box block 0 30 0 30 0 30
create_box 1 my_box
Created orthogonal box = (0 0 0) to (30 30 30)
  1 by 1 by 1 MPI processor grid





# Filling up the box with the particles

create_atoms 1 random 5000 87910 my_box
Created 5000 atoms
  using lattice units in orthogonal box = (0 0 0) to (30 30 30)
  create_atoms CPU = 0.001 seconds




# Defining the particle's properties and switching off the interaction

mass 1 1.0

pair_style lj/cut 2.5
pair_style none




# Creating initial velocity distribution for a given temperature

velocity all create 4.0 12345 mom yes rot no  # Assign initial velocities




# Setting up Brownian dynamics through the Langevin thermostat at a particular temperature

fix my_thermo_stat all langevin 4  4  0.1 89080




# Applying an integrator to update the position and the velocity

fix integrator all nve




# Setting up time achieved by each simulation step

timestep 0.005




# Specifying the parameters to print on the terminal

thermo 100
thermo_style custom step temp ke pe press






# Apply another compute to calculate the mean squared displacement

compute msd_all all msd
fix msd_output all ave/time 100 1 100 c_msd_all file msd.dat mode vector





# Running the simulation

run 40000
WARNING: No pairwise cutoff or binsize set. Atom sorting therefore disabled. (src/atom.cpp:2486)
WARNING: Communication cutoff is 0.0. No ghost atoms will be generated. Energies and forces may be wrong and atoms may get lost. (src/comm_brick.cpp:188)
Per MPI rank memory allocation (min/avg/max) = 2.672 | 2.672 | 2.672 Mbytes
   Step          Temp          KinEng         PotEng         Press     
         0   4              5.9988         0              0.74059259   
       100   4.0740478      6.1098495      0              0.75430241   
       200   3.9650113      5.9463274      0              0.7341145    
       300   4.0076724      6.0103064      0              0.74201313   
       400   4.0021466      6.0020192      0              0.74099003   
       500   4.0465327      6.0685851      0              0.74920804   
       600   3.9750039      5.9613133      0              0.73596461   
       700   3.9818922      5.9716438      0              0.73723997   
       800   3.9687893      5.9519933      0              0.73481398   
       900   4.0065043      6.0085545      0              0.74179685   
      1000   3.9807017      5.9698583      0              0.73701954   
      1100   4.0255354      6.0370955      0              0.74532043   
      1200   4.0468236      6.0690214      0              0.7492619    
      1300   3.9592644      5.9377088      0              0.73305047   
      1400   3.9466522      5.9187942      0              0.73071534   
      1500   3.943367       5.9138675      0              0.7301071    
      1600   3.9829163      5.9731796      0              0.73742958   
      1700   3.9741389      5.9600162      0              0.73580447   
      1800   4.0229293      6.0331871      0              0.74483791   
      1900   4.0077886      6.0104805      0              0.74203463   
      2000   3.9906924      5.9848414      0              0.73886931   
      2100   4.0106893      6.0148307      0              0.74257169   
      2200   3.938004       5.9058247      0              0.72911416   
      2300   4.0592945      6.0877239      0              0.75157085   
      2400   4.045618       6.0672133      0              0.74903868   
      2500   4.010543       6.0146114      0              0.74254462   
      2600   3.9670426      5.9493738      0              0.73449059   
      2700   4.0274754      6.0400049      0              0.74567961   
      2800   3.9878747      5.9806157      0              0.73834762   
      2900   3.9623713      5.9423682      0              0.7336257    
      3000   3.9699091      5.9536726      0              0.73502131   
      3100   4.012072       6.0169044      0              0.74282771   
      3200   4.0476748      6.0702979      0              0.74941949   
      3300   4.0072325      6.0096466      0              0.74193168   
      3400   3.9958751      5.9926139      0              0.73982887   
      3500   3.9982755      5.9962137      0              0.7402733    
      3600   4.0494426      6.0729491      0              0.7497468    
      3700   4.0152588      6.0216837      0              0.74341774   
      3800   4.0549731      6.0812432      0              0.75077077   
      3900   3.992406       5.9874113      0              0.73918658   
      4000   4.0148746      6.0211075      0              0.74334661   
      4100   3.9218624      5.8816171      0              0.72612557   
      4200   4.0191218      6.027477       0              0.74413296   
      4300   3.9782347      5.9661585      0              0.73656278   
      4400   3.9706853      5.9548367      0              0.73516502   
      4500   3.976629       5.9637506      0              0.7362655    
      4600   3.9693761      5.9528734      0              0.73492264   
      4700   3.9829996      5.9733044      0              0.73744499   
      4800   4.0293779      6.0428581      0              0.74603186   
      4900   3.9997466      5.99842        0              0.74054568   
      5000   4.0700537      6.1038596      0              0.75356291   
      5100   4.0032667      6.003699       0              0.74119741   
      5200   3.9675867      5.9501897      0              0.73459132   
      5300   3.9313678      5.8958723      0              0.72788547   
      5400   4.0057403      6.0074087      0              0.74165539   
      5500   4.0370976      6.0544353      0              0.74746114   
      5600   3.9279834      5.8907967      0              0.72725885   
      5700   4.0436156      6.0642103      0              0.74866793   
      5800   3.9587273      5.9369033      0              0.73295103   
      5900   4.0591304      6.0874778      0              0.75154047   
      6000   3.9715051      5.9560661      0              0.73531681   
      6100   4.0834841      6.1240012      0              0.75604953   
      6200   3.9070249      5.8593652      0              0.72337842   
      6300   3.9498898      5.9236497      0              0.73131478   
      6400   3.9944534      5.9904817      0              0.73956565   
      6500   4.0531499      6.0785089      0              0.7504332    
      6600   3.9558735      5.9326235      0              0.73242266   
      6700   3.9090925      5.862466       0              0.72376124   
      6800   3.9392052      5.907626       0              0.72933654   
      6900   4.006499       6.0085466      0              0.74179587   
      7000   4.0810424      6.1203393      0              0.75559744   
      7100   4.0061011      6.0079498      0              0.7417222    
      7200   4.0105519      6.0146247      0              0.74254626   
      7300   3.9049764      5.8562932      0              0.72299916   
      7400   3.8659767      5.7978052      0              0.71577842   
      7500   4.0141848      6.020073       0              0.74321889   
      7600   4.009151       6.0125237      0              0.74228688   
      7700   3.9889176      5.9821797      0              0.7385407    
      7800   3.9632964      5.9437556      0              0.73379698   
      7900   4.0509689      6.075238       0              0.75002939   
      8000   4.0358578      6.0525759      0              0.7472316    
      8100   4.1140067      6.1697759      0              0.76170072   
      8200   4.0833498      6.1237996      0              0.75602465   
      8300   4.0272223      6.0396253      0              0.74563275   
      8400   4.0815738      6.1211363      0              0.75569584   
      8500   4.0204068      6.0294041      0              0.74437087   
      8600   4.0981354      6.1459737      0              0.75876218   
      8700   4.0782442      6.1161429      0              0.755079